Expt,ClogP,Polarizability,Name,smiles
-3.613,3.28,210.732,None,COc1cc(OC)cc(C(=O)N(O)c2cccc(C)c2)c1
-1.568,2.36,242.74200000000002,None,CN1C2CCC1CC(OC(=O)C(COS(=O)(=O)O)c1ccccc1)C2
-2.456,2.38,173.99,None,N=C(N)NN=Cc1c(O)ccc2ccccc12
-1.815,4.49,246.65200000000002,None,OC(CCN1CCCCC1)(c1ccccc1)C1CCCCC1
-2.9589999999999996,1.48,217.13,None,CCn1cc(C(=O)O)c(=O)c2cc(F)c(N3CCNCC3)cc21
0.132,-0.92,135.09,None,CC(=O)Nc1ccc(OP(=O)([O-])O)cc1
-1.452,1.73,125.448,None,CN(O)C(=O)C1CCCCCC1
-2.035,1.53,131.15,None,O=C(C1CC1)N(O)C1CCCCC1
-2.699,2.09,143.634,None,O=C(C1CCC1)N(O)C1CCCCC1
-3.155,2.66,156.118,None,O=C(C1CCCC1)N(O)C1CCCCC1
-0.424,3.01,148.634,None,CCN(C)N=Nc1ccc(C(=O)O)cc1
-1.432,3.54,161.118,None,CCCN(C)N=Nc1ccc(C(=O)O)cc1
-1.808,4.07,173.602,None,CCCCN(C)N=Nc1ccc(C(=O)O)cc1
-2.367,4.6,186.08599999999998,None,CCCCCN(C)N=Nc1ccc(C(=O)O)cc1
-2.524,5.13,198.57,None,CCCCCCN(C)N=Nc1ccc(C(=O)O)cc1
-3.385,5.66,211.054,None,CCCCCCCN(C)N=Nc1ccc(C(=O)O)cc1
-5.474,4.67,219.674,None,O=C(c1ccc2ccccc2c1)N(O)c1ccc(Cl)cc1
-2.31,1.78,143.44899999999998,None,c1cnc2c(c1)ccc1cccnc12
-2.046,2.0,254.899,None,CC(C)CNCc1cccc(C(=O)c2csc(S(N)(=O)=O)c2)c1
-2.21,2.18,254.899,None,CCCCNCc1ccc(C(=O)c2csc(S(N)(=O)=O)c2)cc1
-1.4980000000000002,2.53,267.383,None,CC(C)CCNCc1cccc(C(=O)c2csc(S(N)(=O)=O)c2)c1
-1.4180000000000001,2.14,271.69,None,CC(C)CN(C)Cc1cc(C(=O)c2csc(S(N)(=O)=O)c2)ccc1O
-1.975,1.65,266.16700000000003,None,CC(C)(C)NCc1ccc(S(=O)(=O)c2csc(S(N)(=O)=O)c2)cc1
-1.6840000000000002,2.02,266.16700000000003,None,CCCCNCc1ccc(S(=O)(=O)c2csc(S(N)(=O)=O)c2)cc1
-1.5219999999999998,0.24,252.424,None,NS(=O)(=O)c1cc(C(=O)c2ccc(CN3CCOCC3)cc2)cs1
-1.557,1.3,253.683,None,CC(C)NCc1cccc(S(=O)(=O)c2csc(S(N)(=O)=O)c2)c1
-1.327,1.83,266.16700000000003,None,CCC(C)NCc1cccc(S(=O)(=O)c2csc(S(N)(=O)=O)c2)c1
-1.9240000000000002,0.24,252.424,None,NS(=O)(=O)c1cc(C(=O)c2cccc(CN3CCOCC3)c2)cs1
-1.845,0.93,276.401,None,CNC(=O)c1cccc(NCC(=O)NCCc2ccc(OC)c(OC)c2)c1
-1.041,1.17,172.542,None,CCNCc1cc2cc(S(N)(=O)=O)oc2s1
-1.327,2.05,197.51,None,CC(C)CNCc1cc2cc(S(N)(=O)=O)oc2s1
-0.922,1.27,201.817,None,CCOCCNCc1cc2cc(S(N)(=O)=O)oc2s1
-2.6860000000000004,0.81,263.91700000000003,None,COc1ccc(CCNC(=O)CNc2cccc(C(N)=O)c2)cc1OC
-0.43200000000000005,0.47,229.74400000000003,None,O=C1NC(c2ccccc2)(c2ccccc2)C(=O)N1COP(=O)([O-])O
-1.331,1.05,220.391,None,NS(=O)(=O)c1cc2cc(CNCc3ccccn3)sc2o1
-1.7180000000000002,0.87,136.55200000000002,None,CNC(=O)COC(=O)c1ccccc1
-1.3719999999999999,0.67,149.036,None,CN(C)C(=O)COC(=O)c1ccccc1
-2.539,1.93,161.52,None,CCCNC(=O)COC(=O)c1ccccc1
-2.866,2.1,174.00400000000002,None,CC(C)(C)NC(=O)COC(=O)c1ccccc1
-2.254,-0.53,160.87,None,NS(=O)(=O)c1cc2c(s1)C(O)CCS2
-3.341,2.43,198.972,None,CC(C)N(C(=O)COC(=O)c1ccccc1)C(C)C
-2.594,-0.53,160.87,None,NS(=O)(=O)c1cc2c(s1)SCCC2O
-3.4939999999999998,0.36,157.151,None,NS(=O)(=O)c1cc2c(s1)C(=O)CCS2
-1.09,0.36,165.827,None,CN(CCO)C(=O)COC(=O)c1ccccc1
-2.379,2.8,198.972,None,CCCN(CCC)C(=O)COC(=O)c1ccccc1
-1.367,0.89,178.31099999999998,None,CCN(CCO)C(=O)COC(=O)c1ccccc1
-2.501,2.15,179.706,None,O=C(OCC(=O)N1CCCCC1)c1ccccc1
-3.2939999999999996,2.73,204.674,None,CN(C(=O)COC(=O)c1ccccc1)C1CCCCC1
-3.552,0.55,157.151,None,NS(=O)(=O)c1cc2c(s1)SCCC2=O
-2.563,2.6,197.66,None,C=CCN(CC=C)C(=O)COC(=O)c1ccccc1
-2.9189999999999996,1.08,159.94299999999998,None,Cc1ccc(Cn2cc(F)c(=O)[nH]c2=O)cc1
-1.7730000000000001,1.1,171.52900000000002,None,O=C(OCC(=O)N1CCOCC1)c1ccccc1
-1.4980000000000002,0.17,159.35,None,NC(=O)CNC(=O)COC(=O)c1ccccc1
-3.5610000000000004,3.86,223.94,None,CCCCN(CCCC)C(=O)COC(=O)c1ccccc1
0.43,0.0439,182.618,None,O=C(OCC(=O)N(CCO)CCO)c1ccccc1
-1.57,-2.51,158.537,None,NS(=O)(=O)c1cc2c(s1)C(O)CCS2=O
-1.348,-1.04,158.537,None,NS(=O)(=O)c1cc2c(s1)S(=O)CCC2O
-2.679,0.2,158.537,None,NS(=O)(=O)c1cc2c(s1)S(=O)(=O)CCC2
-3.0180000000000002,-0.17,159.125,None,NS(=O)(=O)c1cc2c(s1)S(=O)(=O)CCC2=O
-3.944,1.82,173.791,None,O=c1[nH]c(=O)n(Cc2ccc(Cl)cc2Cl)cc1F
-1.589,-1.25,162.844,None,NS(=O)(=O)c1cc2c(s1)CC(O)CS2(=O)=O
-1.276,-1.47,162.844,None,NS(=O)(=O)c1cc2c(s1)C(O)CCS2(=O)=O
-1.6680000000000001,1.98,191.38299999999998,None,CCOC(=O)CN(C)C(=O)COC(=O)c1ccccc1
-1.045,0.2,190.02,None,NC(=O)C1CCCN1C(=O)COC(=O)c1ccccc1
-3.6710000000000003,-0.56,159.125,None,NS(=O)(=O)c1cc2c(s1)C(=O)CCS2(=O)=O
-1.5390000000000001,-1.05,162.844,None,NS(=O)(=O)c1cc2c(s1)S(=O)(=O)CC(O)C2
-2.9419999999999997,2.52,293.91,None,CNc1cc(NS(C)(=O)=O)ccc1Nc1c2ccccc2nc2ccccc12
-2.331,1.49,269.73900000000003,None,CN(C(=O)CNC(=O)CN)c1ccc(Cl)cc1C(=O)c1ccccc1Cl
-0.5329999999999999,0.21,115.303,None,NC(C(=O)O)c1ccc(O)cc1
-0.9179999999999999,0.08,171.834,None,CN(CC(N)=O)C(=O)COC(=O)c1ccccc1
-1.65,-1.27,162.844,None,NS(=O)(=O)c1cc2c(s1)S(=O)(=O)CCC2O
-1.087,2.2,136.917,None,CCCCOP(=O)(O)OCCCC
-2.804,3.38,163.705,None,O=C(C(=O)c1ccccc1)c1ccccc1
-1.126,0.35,120.334,None,CC(=O)NC(CC(C)C)C(=O)O
-3.305,1.23,154.131,None,NC(CSSCC(N)C(=O)O)C(=O)O
-2.002,4.15,255.773,None,COc1ccccc1CC(C)NC(C)Cc1ccccc1OC
-2.222,2.85,282.232,None,CN1CCC23c4c5ccc(OCc6ccccc6)c4OC2C(O)C=CC3C1C5
-1.768,1.5,124.014,None,CC(C)Nc1nc(N)nc(Cl)n1
-0.82,1.73,228.562,None,CCOc1ccc2c3c1OC1C(O)C=CC4C(C2)N(C)CCC341
-1.203,3.44,248.872,None,C=CC1CN2CCC1CC2C(O)c1ccnc2ccc(OC)cc12
-0.353,1.05,135.376,None,CNC(C)C(O)c1ccccc1
-2.075,3.08,214.683,None,COC(=O)C1C(OC(=O)c2ccccc2)CC2CCC1N2C
-1.0959999999999999,1.2,216.078,None,COc1ccc2c3c1OC1C(O)C=CC4C(C2)N(C)CCC341
-2.48,2.23,222.299,None,O=S(=O)(NS(=O)(=O)c1ccc(Cl)cc1)c1ccc(Cl)cc1
-2.909,0.51,186.07,None,Cc1csc(NS(=O)(=O)c2ccc(N)cc2)n1
-4.032,3.77,235.017,None,CC(CN1c2ccccc2Sc2ccccc21)N(C)C
-0.3,-0.58,145.764,None,CC1(C)C2CCC1(CS(=O)(=O)O)C(=O)C2
-3.0,4.15,255.773,None,COc1cccc(CC(C)NC(C)Cc2ccccc2OC)c1
-2.347,3.35,232.081,None,C=CC1CN2CCC1CC2C(O)c1ccnc2ccccc12
-1.0,1.39,216.734,None,COc1ccc2c3c1OC1C(O)CCC4C(C2)N(C)CCC341
-2.83,1.84,122.84700000000001,None,O=[N+]([O-])c1cc([N+](=O)[O-])c(O)c([N+](=O)[O-])c1
-1.383,1.57,153.17,None,CCSC(=S)NC(CC(=O)O)C(=O)O
-1.69,0.48,148.497,None,CC(C)C(O)(CCC(C)(O)C(=O)O)C(=O)O
-1.411,2.09,165.81,None,CC(SC(=S)SC(C)C(=O)O)C(=O)O
-1.242,2.05,165.983,None,O=C(O)CC(CSC(=O)O)c1ccccc1
-1.212,-0.0133,108.47,None,Cc1ncc([N+](=O)[O-])n1CCO
-3.7560000000000002,2.63,148.982,None,CCNc1nc(Cl)nc(NC(C)C)n1
-5.899,3.49,179.766,None,[O-]N=C(C(=NO)c1ccccc1)c1ccccc1
-0.737,0.33,120.954,None,Cc1ncc([N+](=O)[O-])n1CC(C)O
-2.046,0.83,146.615,None,Cc1nnc(-c2ccccc2)c(=O)n1N
-5.324,0.67,210.34799999999998,None,NC1CN(c2cc3c(cc2F)c(=O)c(C(=O)O)cn3C2CC2)C1
-5.405,0.9,222.832,None,CNC1CN(c2cc3c(cc2F)c(=O)c(C(=O)O)cn3C2CC2)C1
-5.6160000000000005,1.21,222.832,None,CC1(N)CN(c2cc3c(cc2F)c(=O)c(C(=O)O)cn3C2CC2)C1
-5.332000000000001,1.72,235.998,None,CC1(N)CN(c2c(F)cc3c(=O)c(C(=O)O)cn(C4CC4)c3c2Cl)C1
-4.376,1.81,233.0,None,CC1(N)CN(c2c(F)c(N)c3c(=O)c(C(=O)O)cn(C4CC4)c3c2F)C1
-3.596,2.04,169.56400000000002,None,c1ccc(CNc2ncnc3[nH]cnc23)cc1
-5.269,1.07,210.79,None,NC1CN(c2c(F)cc3c(=O)c(C(=O)O)cn(C4CC4)c3c2F)C1
-3.946,1.2,149.559,None,c1coc(CNc2ncnc3[nH]cnc23)c1
-5.638999999999999,1.61,223.274,None,CC1(N)CN(c2c(F)cc3c(=O)c(C(=O)O)cn(C4CC4)c3c2F)C1
-5.312,1.3,223.274,None,CNC1CN(c2c(F)cc3c(=O)c(C(=O)O)cn(C4CC4)c3c2F)C1
-4.383,0.94,168.398,None,CCn1cc(C(=O)O)c(=O)c2cc3c(cc21)OCO3
-5.48,4.34,209.83900000000003,None,COc1ccc2cc(C(C)C(=O)OC(C)C)ccc2c1
-7.614,5.91,178.891,None,Clc1cc(Cl)c2c(c1Cl)Oc1ccccc1O2
-4.197,3.09,209.06400000000002,None,CCOC(=O)C1CCn2c(C(=O)c3ccccc3)ccc21
-3.964,3.57,236.32,None,COc1cc2c(c3c1c(=O)c1cccnc1n3C)C=CC(C)(C)O2
-4.419,2.75,241.833,None,CN1CCN(C2=Nc3ccccc3Oc3ccc(Cl)cc32)CC1
-2.0269999999999997,0.13,196.885,None,NC(=O)N1c2ccccc2C(O)C(O)c2ccccc21
-2.35,3.1,221.887,None,CCCCCCCCNC(=O)OCC1OC(O)C(O)C(O)C1O
-2.964,3.63,234.37099999999998,None,CCCCCCCCCNC(=O)OCC1OC(O)C(O)C(O)C1O
-3.56,4.16,246.855,None,CCCCCCCCCCNC(=O)OCC1OC(O)C(O)C(O)C1O
-5.162000000000001,4.15,258.932,None,Cc1c(OCc2ccccc2)ccc2c(=O)cc(N3CCOCC3)oc12
-4.45,2.66,253.111,None,Cc1c(OCc2ccccn2)ccc2c(=O)cc(N3CCOCC3)oc12
-0.45,0.0146,181.442,None,CC(C)(C)NCC(O)c1ccc(O)c(CO)c1
0.504,-1.4,125.75299999999999,None,CN(C)C(=O)CCC(=O)N(C)C
-2.201,1.95,123.48,None,CCOC(=O)c1ccc(N)cc1
-3.957,1.65,138.52,None,CCC1(CC)CCC(=O)N(CO)C1=O
-3.9330000000000003,0.56,136.35,None,CCC1(CC)C(=O)NC(=O)N(CO)C1=O
-0.29600000000000004,-2.15,161.96,None,Nc1ncc2ncn(CCC(CO)CO)c2n1
-3.9160000000000004,3.14,212.93900000000002,None,O=C1c2cc(CCCCO)ccc2OCc2ccsc21
-2.7739999999999996,2.04,180.243,None,CCC1(C2=CC3CCC(C2)C3)C(=O)NC(=O)NC1=O
-3.3369999999999997,2.79,170.89700000000002,None,O=C(CS)Nc1ccc2ccccc2c1
-2.715,3.03,181.178,None,O=C(O)c1ccccc1C(=O)c1ccc(Cl)cc1
-2.063,-0.3,118.24700000000001,None,C=CC1(C=C)C(=O)NC(=O)NC1=O
-3.292,2.85,161.52,None,CCCOC(=O)c1ccc(NC(C)=O)cc1
-1.712,0.5,131.387,None,C=CC1(C(C)C)C(=O)NC(=O)NC1=O
-2.12,1.03,143.871,None,C=CC1(CC(C)C)C(=O)NC(=O)NC1=O
-2.43,1.26,170.13400000000001,None,CCOC(=O)OCOc1ccc(NC(C)=O)cc1
-5.071000000000001,2.77,243.69,None,CCC(=O)OCN1C(=O)NC(c2ccccc2)(c2ccccc2)C1=O
-4.678,3.3,256.17400000000004,None,CCCC(=O)OCN1C(=O)NC(c2ccccc2)(c2ccccc2)C1=O
-5.886,3.83,268.658,None,CCCCC(=O)OCN1C(=O)NC(c2ccccc2)(c2ccccc2)C1=O
-6.301,4.36,281.142,None,CCCCCC(=O)OCN1C(=O)NC(c2ccccc2)(c2ccccc2)C1=O
-0.433,-1.3,138.05,None,Nc1ccn(C2CCC(CO)O2)c(=O)n1
-3.549,1.27,247.997,None,CC(=O)OC1c2ccccc2N(C(N)=O)c2ccccc2C1OC(C)=O
-0.617,-0.26,138.489,None,COC(=O)C(NC(=O)C(Cl)Cl)C(C)O
-0.027999999999999997,-0.8,113.521,None,O=C(NC(CO)C(=O)O)C(Cl)Cl
-1.609,1.02,154.738,None,O=C(OCC(=O)N1CCC1)c1ccccc1
-2.7319999999999998,1.75,161.52,None,CC(C)NC(=O)COC(=O)c1ccccc1
-2.759,2.46,174.00400000000002,None,CCCCNC(=O)COC(=O)c1ccccc1
-1.568,1.59,167.222,None,O=C(OCC(=O)N1CCCC1)c1ccccc1
-1.229,1.63,174.00400000000002,None,CN(C)C(=O)CCCOC(=O)c1ccccc1
-0.495,1.27,162.108,None,CC(=O)N(C)C(=O)COC(=O)c1ccccc1
-3.5610000000000004,3.49,223.94,None,CC(C)CN(CC(C)C)C(=O)COC(=O)c1ccccc1
-2.7239999999999998,3.17,204.674,None,CCC1CCCCN1C(=O)COC(=O)c1ccccc1
-0.8240000000000001,3.14,204.674,None,CC1CCCC(C)N1C(=O)COC(=O)c1ccccc1
-2.542,2.72,192.19,None,O=C(OCC(=O)N1CCCCCC1)c1ccccc1
-3.8989999999999996,2.93,192.19,None,O=C(COC(=O)c1ccccc1)NC1CCCCC1
-1.349,0.63,184.013,None,O=C(OCC(=O)N1CCC(O)CC1)c1ccccc1
-1.178,0.74,207.58599999999998,None,CC(O)CN(CC(C)O)C(=O)COC(=O)c1ccccc1
-2.395,1.17,158.39700000000002,None,CCC(=O)OCSc1ncnc2[nH]cnc12
-1.268,0.37,186.925,None,O=C(COC(=O)c1ccccc1)NC(CO)(CO)CO
-2.717,0.52,171.834,None,CC(NC(=O)COC(=O)c1ccccc1)C(N)=O
-2.694,1.7,170.88099999999997,None,CCCC(=O)OCSc1ncnc2[nH]cnc12
-1.5730000000000002,1.28,207.58599999999998,None,COCCN(CCOC)C(=O)COC(=O)c1ccccc1
-3.103,2.23,183.365,None,CCCCC(=O)OCSc1ncnc2[nH]cnc12
-3.622,2.76,195.84900000000002,None,CCCCCC(=O)OCSc1ncnc2[nH]cnc12
-2.084,1.28,197.085,None,COC(=O)C1CCCN1C(=O)COC(=O)c1ccccc1
-5.059,4.79,260.312,None,O=C(OCC(=O)N(C1CCCCC1)C1CCCCC1)c1ccccc1
-4.614,3.82,220.817,None,CCCCCCCC(=O)OCSc1ncnc2[nH]cnc12
-5.242000000000001,3.99,197.355,None,CCOC(=O)C(C)c1ccc2cc(OC)ccc2c1
-5.8229999999999995,4.52,209.83900000000003,None,CCCOC(=O)C(C)c1ccc2cc(OC)ccc2c1
-7.53,5.05,222.32299999999998,None,CCCCOC(=O)C(C)c1ccc2cc(OC)ccc2c1
-3.3280000000000003,2.63,201.662,None,COc1ccc2cc(C(C)C(=O)OCCO)ccc2c1
-6.496,4.69,222.32299999999998,None,COc1ccc2cc(C(C)C(=O)OC(C)(C)C)ccc2c1
-6.97,5.58,234.80700000000002,None,CCCCCOC(=O)C(C)c1ccc2cc(OC)ccc2c1
-3.305,2.98,214.146,None,COc1ccc2cc(C(C)C(=O)OCC(C)O)ccc2c1
-3.395,3.05,214.146,None,COc1ccc2cc(C(C)C(=O)OCCCO)ccc2c1
-7.542999999999999,6.12,247.291,None,CCCCCCOC(=O)C(C)c1ccc2cc(OC)ccc2c1
-7.117000000000001,6.65,259.775,None,CCCCCCCOC(=O)C(C)c1ccc2cc(OC)ccc2c1
-4.648,3.71,210.42700000000002,None,COc1ccc2cc(C(C)C(=O)OCC(C)=O)ccc2c1
-7.331,5.16,242.627,None,CCC#CCCOC(=O)C(C)c1ccc2cc(OC)ccc2c1
-2.615,2.01,218.453,None,COc1ccc2cc(C(C)C(=O)OCC(O)CO)ccc2c1
-5.074,3.67,244.81599999999997,None,COc1ccc2cc(C(C)C(=O)OC3CCCCC3O)ccc2c1
-3.167,3.61,230.347,None,CCCCCCCC(=O)OC1C(C(O)CO)OC2OC(C)(C)OC21
-5.593,3.63,241.097,None,COc1ccc2cc(C(C)C(=O)OC3CCCCC3=O)ccc2c1
-7.355,5.7,246.635,None,CCC=CCCOC(=O)C(C)c1ccc2cc(OC)ccc2c1
-3.9760000000000004,2.36,246.648,None,COc1ccc2cc(C(C)C(=O)OC3COC4C(O)COC34)ccc2c1
-4.436,3.82,228.635,None,CCOc1ccc(NC(=O)Nc2ccc(OCC)cc2)cc1
-4.442,4.66,216.864,None,CCCOCC(=Nc1ccc(Cl)cc1C(F)(F)F)n1ccnc1
-5.078,2.08,150.363,None,Cc1coc2cc3oc(=O)c(N)cc3cc12
-5.0,2.76,157.428,None,COc1cc2cc3c(C)coc3cc2oc1=O
-4.897,2.75,182.984,None,COC(=O)c1cc2cc3c(C)coc3c(C)c2oc1=O
-4.907,2.24,231.206,None,CC(=O)OCN1C(=O)NC(c2ccccc2)(c2ccccc2)C1=O
-3.0269999999999997,1.79,244.34599999999998,None,CN(C)C(=O)COC(=O)C1CCn2c(C(=O)c3ccccc3)ccc21
-6.386,4.6,230.28099999999998,None,COC(=O)c1cc(CCc2cc(OC)ccc2OC)ccc1O
-5.091,1.75,198.183,None,C=CCn1cnc2c(=O)[nH]c(Nc3ccccc3)nc21
-3.912,1.69,235.31599999999997,None,CCC1C(N)CN1c1cc2c(cc1F)c(=O)c(C(=O)O)cn2C1CC1
-4.573,1.39,235.31599999999997,None,CNC1CN(c2cc3c(cc2F)c(=O)c(C(=O)O)cn3C2CC2)C1C
-5.422999999999999,1.7,235.31599999999997,None,CC1N(c2cc3c(cc2F)c(=O)c(C(=O)O)cn3C2CC2)CC1(C)N
-4.4830000000000005,1.67,235.998,None,CC1C(N)CN1c1c(F)cc2c(=O)c(C(=O)O)cn(C3CC3)c2c1Cl
-3.984,1.76,233.0,None,CC1C(N)CN1c1c(F)c(N)c2c(=O)c(C(=O)O)cn(C3CC3)c2c1F
-4.442,1.79,235.75799999999998,None,CNC1CN(c2c(F)cc3c(=O)c(C(=O)O)cn(C4CC4)c3c2F)C1C
-3.812,2.09,235.75799999999998,None,CCC1C(N)CN1c1c(F)cc2c(=O)c(C(=O)O)cn(C3CC3)c2c1F
-5.041,2.1,235.75799999999998,None,CC1N(c2c(F)cc3c(=O)c(C(=O)O)cn(C4CC4)c3c2F)CC1(C)N
-4.628,1.16,222.832,None,CC1C(N)CN1c1cc2c(cc1F)c(=O)c(C(=O)O)cn2C1CC1
-4.173,1.56,223.274,None,CC1C(N)CN1c1c(F)cc2c(=O)c(C(=O)O)cn(C3CC3)c2c1F
-4.249,2.66,278.698,None,CC12CCC(=O)C=C1CCC1C2CCC2(C)C(OC(=O)C(CO)CO)CCC12
-2.92,1.92,211.857,None,OCC1OC(n2c(-c3ccco3)nc3ccccc32)C(O)C1O
-2.3280000000000003,2.07,228.648,None,OCC1OC(n2c(-c3ccco3)nc3ccccc32)C(O)C(O)C1O
-2.9139999999999997,3.79,217.148,None,CCCCCCCCSC1C(O)C(O)OC(CO)C1O
-0.28,-2.29,223.424,None,CC(O)C1C(=O)N2C(C(=O)O)=C(SCC(=N)N(C)C)C(C)C12
-4.052,4.33,184.925,None,Cc1cc(N=Nc2ccccc2C)ccc1N
-5.252000000000001,4.43,184.925,None,CN(C)c1ccc(N=Nc2ccccc2)cc1
-2.377,0.77,135.189,None,CC1NC(=O)c2ccccc2NC1=O
-3.903,3.38,184.925,None,Cc1ccc(N=Nc2cc(C)ccc2N)cc1
-3.0460000000000003,1.49,135.871,None,O=C1CNC(=O)c2cc(Cl)ccc2N1
-3.9589999999999996,3.95,219.65400000000002,None,Brc1cccc(Nc2ncnc3cc4[nH]ncc4cc23)c1
-3.867,1.0,160.745,None,CCn1cc(C(=O)O)c(=O)c2ccc(C)nc21
-2.356,1.56,156.355,None,C=CC1(C(C)CCC)C(=O)NC(=O)NC1=O
-2.824,4.27,225.475,None,Brc1cccc(Nc2ncnc3cc4[nH]ccc4cc23)c1
-3.1039999999999996,3.1,120.193,None,CCCCC(CO[N+](=O)[O-])O[N+](=O)[O-]
-3.714,2.96,210.202,None,CN1C(=O)CN=C(c2ccccc2)c2cc(Cl)ccc21
-3.861,3.14,213.572,None,CN(C)c1ccc(N=Nc2ccc(S(=O)(=O)O)cc2)cc1
-3.785,2.18,200.263,None,O=C1CN=C(c2ccccc2)c2cc([N+](=O)[O-])ccc2N1
-4.468999999999999,1.34,205.65,None,O=C1NC(c2ccccc2)(c2ccccc2)C(=O)N1CO
-4.413,2.34,213.429,None,O=C1CN=C(c2ccccc2Cl)c2cc([N+](=O)[O-])ccc2N1
-1.495,1.56,170.27,None,CCCC(CCC)C(=O)NCCCC(=O)O
-4.172,5.64,246.68900000000002,None,Cc1ccc(N=CN(C)C=Nc2ccc(C)cc2C)c(C)c1
-3.31,4.67,237.959,None,Cn1ccc2cc3c(Nc4cccc(Br)c4)ncnc3cc21
-3.4810000000000003,4.06,232.138,None,Cn1ncc2cc3c(Nc4cccc(Br)c4)ncnc3cc21
-1.9580000000000002,4.05,255.338,None,O=C(O)Cn1ccc2cc3c(Nc4cccc(Br)c4)ncnc3cc21
-1.268,0.0437,145.69,None,CCN(C(N)=O)c1ccc(OC)cc1
-5.627999999999999,4.24,283.029,None,CCc1ccc(C(=O)NN(C(=O)c2cc(C)cc(C)c2)C(C)(C)C)cc1
-2.5860000000000003,2.37,117.663,None,O=C(O)c1ccc(Cl)c([N+](=O)[O-])c1
-2.6489999999999996,0.62,147.459,None,O=c1[nH]c(=O)n(Cc2ccccc2)cc1F
-3.537,5.85,277.731,None,Clc1ccc(C(Cn2ccnc2)OCc2cc(Cl)ccc2Cl)c(Cl)c1
-0.623,0.0431,100.61200000000001,None,OCC1OCOC2COCOC12
-2.503,2.57,107.709,None,CCCC(CO[N+](=O)[O-])O[N+](=O)[O-]
-2.437,2.71,107.709,None,CC(CCCO[N+](=O)[O-])O[N+](=O)[O-]
-2.841,2.3,120.193,None,CC(CCCCO[N+](=O)[O-])O[N+](=O)[O-]
-2.33,2.78,113.411,None,O=[N+]([O-])OC1CCCC(O[N+](=O)[O-])C1
-2.133,-0.37,172.945,None,CN1CCN(Cc2ccc(Cl)nc2)C1=NC#N
-2.347,2.82,113.411,None,O=[N+]([O-])OC1CCCCC1O[N+](=O)[O-]
-2.6319999999999997,0.52,160.461,None,N#CN=C1NCCN1Cc1ccc(Cl)nc1
-3.0210000000000004,3.38,125.895,None,O=[N+]([O-])OC1CCCCCC1O[N+](=O)[O-]
-3.094,3.11,230.03799999999998,None,CCN(CC)CCSc1nnc2[nH]c3ccccc3c2n1
-1.425,-1.08,168.25,None,Nc1ncc2ncn(CCC3COC(=O)OC3)c2n1
-7.627000000000001,5.49,211.257,None,O=C(NC(=O)c1c(F)cccc1F)Nc1cc(Cl)c(F)c(Cl)c1F
-4.52,1.34,221.778,None,CS(=O)(=O)c1ccc(C2=C(c3ccccc3)C(=O)OC2)cc1
0.075,-1.31,115.557,None,Cn1cncc1CC(N)C(=O)O
-2.124,1.78,140.11,None,OCC1OC2OC(C(Cl)(Cl)Cl)OC2C1O
-1.9340000000000002,1.02,127.897,None,O=C(O)C1CCC(C(=O)O)SS1
-2.138,1.32,135.845,None,COc1ccc(NC(=O)C2CC2)cn1
-3.825,3.0,204.377,None,NS(=O)(=O)c1cc(C(=O)O)c(NCc2ccco2)cc1Cl
-1.237,2.96,268.643,None,CCOC(=O)C(CCc1ccccc1)NC(C)CN1CCCC1C(=O)O
-1.177,2.43,269.231,None,CCOC(=O)C(CCc1ccccc1)NC(C)C(=O)N1CCCC1C(=O)O
0.39299999999999996,-3.62,112.289,None,O=C1OC(C(O)C(O)CO)C(O)C1O
-1.109,0.73,232.18099999999998,None,OCC1OC(OCCc2cccc3ccccc23)C(O)C(O)C1O
-2.641,1.53,147.673,None,CCC1(c2ccccc2)NC(=O)NC1=O
-1.656,0.78,148.58,None,OC1COC(Oc2ccccc2)C(O)C1O
-1.229,1.59,182.90099999999998,None,CC1(C)OCC(COC(=O)c2ccccc2C(=O)O)O1
-0.955,0.3,153.94799999999998,None,O=C(O)CCCC1CCCC2NC(=O)NC12
-1.77,1.04,150.736,None,NC(Cc1c[nH]c2ccccc12)C(=O)O
-2.92,-0.36,118.12799999999999,None,NC(=O)NN=Cc1ccc([N+](=O)[O-])o1
-2.39,2.05,157.011,None,CCCC(C)C1(CC)C(=O)NC(=O)NC1=O
-1.5090000000000001,-2.36,214.83700000000002,None,CC1NC(=O)c2ccccc2N(CC(O)C(O)C(O)CO)C1=O
-1.456,-2.85,202.35299999999998,None,O=C1NCC(=O)N(CC(O)C(O)C(O)CO)c2ccccc21
-1.276,-1.72,148.429,None,Cc1oc(C(O)C(O)C(O)CO)cc1C(=O)O
-1.459,-0.67,165.37099999999998,None,OCC1OC(Oc2ccccc2)C(O)C(O)C1O
-3.096,-3.32,150.064,None,CC(O)C(O)c1cnc2nc(N)[nH]c(=O)c2n1
-1.5190000000000001,3.37,259.961,None,COc1ccc2cc(C(C)C(=O)OCCN3CCNCC3)ccc2c1
-1.4869999999999999,2.94,272.445,None,COc1ccc2cc(C(C)C(=O)OCCN3CCN(C)CC3)ccc2c1
-3.699,3.74,279.51,None,COc1ccc2cc(C(C)C(=O)OCCCCN3CCOCC3)ccc2c1
-3.165,1.69,113.635,None,COc1ccc([N+](=O)[O-])cc1N
-1.286,3.46,297.413,None,COc1ccc2cc(C(C)C(=O)OCCCCN3CCN(C)CC3)ccc2c1
-3.745,0.6,153.375,None,O=C1Nc2ccccc2C(=O)N2CCCC12
-4.699,1.77,166.541,None,O=C1Nc2ccc(Cl)cc2C(=O)N2CCCC12
-1.71,0.26,186.825,None,CNC(=NC#N)NCCSCc1nc[nH]c1C
-2.367,-0.67,157.68200000000002,None,O=C1Nc2ccccc2C(=O)N2CC(O)CC12
-1.945,0.18,181.301,None,CC1=C2C(O)C3C(CC(C)C2CC1=O)OC(=O)C3C
-2.31,0.7,176.292,None,CC(=O)NC(Cc1c[nH]c2ccccc12)C(=O)O
-4.837,5.14,267.058,None,CCOC(=O)C1=CC2(CC)CCCN3CCc4c(n1c1ccccc41)C32
-6.046,5.47,198.778,None,ClC1=C(Cl)C2(Cl)C3C4OC4C(Cl)C3C1(Cl)C2(Cl)Cl
-4.3469999999999995,3.08,247.56,None,c1ccc(-c2cnc(-c3ccc(CN4CCOCC4)cc3)o2)cc1
-0.958,1.26,114.915,None,CCOC(=O)CCC(=O)OCC
-2.7230000000000003,-1.53,155.885,None,CN1CC(O)C2=CC(=NNC(N)=O)C(=O)C=C21
-1.8130000000000002,1.82,104.49700000000001,None,O=C(O)c1cccc([N+](=O)[O-])c1
-0.7959999999999999,2.47,136.15,None,CN(C)N=Nc1ccc(C(=O)O)cc1
-0.845,0.21,186.018,None,NC(Cc1c[nH]c2ccccc12)C(=O)NCC(=O)O
-1.1840000000000002,-1.07,138.49200000000002,None,Nc1ccn(C2CC(F)C(CO)O2)c(=O)n1
-2.6180000000000003,3.55,185.083,None,O=C(O)c1ccc(N=Nc2ccc(O)cc2)cc1Cl
-1.275,-0.51,181.082,None,O=[N+]([O-])c1cccc(OC2OC(CO)C(O)C(O)C2O)c1
-1.936,1.85,225.148,None,O=C(O)C1CN2CCC1CC2C(O)c1ccnc2ccccc12
-2.01,4.42,187.628,None,O=C(O)c1cc(N=Nc2ccccc2[N+](=O)[O-])ccc1O
-3.222,3.62,254.294,None,COCC1COc2cc3ncnc(Nc4cccc(Br)c4)c3cc2O1
-2.185,1.22,206.857,None,CC(=O)OC1C2C(CC(C)C3C=CC(=O)C31C)OC(=O)C2C
-3.523,3.88,268.677,None,COCC1COc2cc3ncnc(Nc4cccc(I)c4)c3cc2O1
-2.759,0.35,215.419,None,Nc1ccc(S(=O)(=O)Nc2ccc(S(N)(=O)=O)cc2)cc1
-1.305,-2.14,159.431,None,O=C(O)C1CCC(=O)N1CN1C(=O)CCC1C(=O)O
-0.862,0.8,194.327,None,COc1ccc(CC2NC(=O)N(C(C)C(=O)O)C2=O)cc1
-2.381,0.38,230.417,None,CC(C)C(NS(=O)(=O)c1ccc(F)cc1)C(=O)NC1CCOC1O
-2.37,0.51,258.976,None,CC(C)CC(NC(=S)Nc1ccccc1)C(=O)NC1CCOC1O
-4.398,3.5,226.081,None,COC1=CC(=O)C2(Oc3c(Cl)c(OC)cc(OC)c3C2=O)C(C)C1
-1.1159999999999999,2.02,235.954,None,CC(C)CC(N)C(=O)NC(Cc1c[nH]c2ccccc12)C(=O)O
-2.029,1.94,241.93900000000002,None,COc1ccc2nccc(C(O)C3CC4CCN3CC4C(=O)O)c2c1
-2.3369999999999997,2.42,217.972,None,COc1cc(OC)c2c(c1Cl)OC1(C2=O)C(C)CC(O)CC1O
-4.704,3.53,226.081,None,COC1=CC(=O)CC(C)C12Oc1c(Cl)c(OC)cc(OC)c1C2=O