,Expt,ClogP,Polarizability,Name,smiles
2035,-1.0,0.94,53.199,Methyl isothiocyanate  ,CN=C=S
2036,-0.8,1.35,71.91199999999998,Methyl methacrylate  ,C=C(C)C(=O)OC
2037,-3.7,3.91,125.733,1-Methyl naphthalene  ,Cc1cccc2ccccc12
2038,-3.77,3.91,125.733,2-Methyl naphthalene  ,Cc1ccc2ccccc2c1
2039,-3.74,3.76,80.157,2-Methyl pentane  ,CCCC(C)C
2040,-3.68,3.76,80.157,3-Methyl pentane  ,CCC(C)CC
2041,-1.42,1.97,93.229,Methyl pentylketone  ,CCCCCC(C)=O
2043,0.04,0.69,59.496,2-Methyl propanol  ,CC(C)CO
2044,-0.14,0.71,60.084,Methyl propionate  ,CCC(=O)OC
2045,-0.39,0.98,59.496,Methyl propyl ether  ,CCCOC
2046,-0.19,0.91,68.26100000000001,Methyl propyl ketone  ,CCCC(C)=O
2047,-0.24,1.15,71.98,Methyl-t-Butyl ether  ,COC(C)(C)C
2049,0.11,0.82,65.19800000000001,2-Methyl tetrahydrofuran  ,CC1CCCO1
2050,-1.36,1.77,85.052,Methyl valerate  ,CCCCC(=O)OC
2051,-6.17,6.19,184.336,Myristyl Alcohol  ,CCCCCCCCCCCCCCO
2052,-8.6,5.91,196.933,Naphthacene  ,c1ccc2cc3cc4ccccc4cc3cc2c1
2053,-3.6,3.45,113.249,Naphthalene  ,c1ccc2ccccc2c1
2054,-1.96,1.73,103.909,o-Nitroanisole  ,COc1ccccc1[N+](=O)[O-]
2055,-2.41,2.03,103.909,p-Nitroanisole  ,COc1ccc([N+](=O)[O-])cc1
2056,-1.83,1.95,87.118,Nitrobenzene  ,O=[N+]([O-])c1ccccc1
2057,-0.22,0.34,45.932,Nitroethane  ,CC[N+](=O)[O-]
2058,0.26,-0.2,33.448,Nitromethane  ,C[N+](=O)[O-]
2059,-0.8,0.87,58.416,1-Nitropropane  ,CCC[N+](=O)[O-]
2060,-0.62,0.68,58.416,2-Nitropropane  ,CC(C)[N+](=O)[O-]
2061,-2.46,2.41,99.602,m-Nitrotoluene  ,Cc1cccc([N+](=O)[O-])c1
2062,-2.31,2.41,99.602,o-Nitrotoluene  ,Cc1ccccc1[N+](=O)[O-]
2065,-5.05,5.03,116.953,1-Nonene  ,C=CCCCCCCC
2066,-4.24,4.19,112.945,1-Nonyne  ,C#CCCCCCCC
2075,-3.92,0.4,51.94300000000001,Octafluorocyclobutane  ,FC1(F)C(F)(F)C(F)(F)C1(F)F
2076,-5.24,5.01,105.125,Octane  ,CCCCCCCC
2077,-2.39,3.0,109.432,1-Octanol  ,CCCCCCCCO
2078,-2.09,2.82,109.432,2-Octanol  ,CCCCCCC(C)O
2079,-4.44,4.5,104.469,1-Octene  ,C=CCCCCCC
2080,-3.66,3.65,100.461,1-Octyne  ,C#CCCCCCC
2081,-3.17,3.56,118.197,Pelargonaldehyde  ,CCCCCCCCC=O
2082,-5.66,4.6,137.237,Pentachlorobenzene  ,Clc1cc(Cl)c(Cl)c(Cl)c1Cl
2094,-2.6,3.2,96.051,Pentachloroethane  ,ClC(Cl)C(Cl)(Cl)Cl
2095,-0.44,-2.36,84.90100000000002,Pentaerythritol  ,OCC(CO)(CO)CO
2096,-4.0,4.52,133.827,Pentamethylbenzene  ,Cc1cc(C)c(C)c(C)c1C
2097,-3.18,3.41,67.673,Pentane  ,CCCCC
2098,-0.6,3.25,127.618,1-Mentanol  ,CC(C)C1(C)CCCC(O)C1
2099,-0.29,3.2,127.618,2-Mentanol  ,CC(C)C1C(C)CCCC1O
2100,-0.24,3.25,127.618,3-Mentanol  ,CC1CCCC(O)(C(C)C)C1
2101,-2.68,2.9,67.017,1-Pentene  ,C=CCCC
2102,-2.54,2.89,67.017,Trans-2-pentene  ,CC=CCC
2103,-4.64,4.8,133.827,Pentylbenzene  ,CCCCCc1ccccc1
2104,-1.64,2.06,63.00899999999999,1-Pentyne  ,C#CCCC
2106,-2.3,1.63,135.964,Phenacetin  ,CCOc1ccc(NC(C)=O)cc1
2107,-5.26,4.68,155.091,Phenanthrene  ,c1ccc2c(c1)ccc1ccccc12
2108,-0.7,1.16,104.989,2-Phenoxyethanol  ,OCCOc1ccccc1
2110,-0.92,1.38,100.682,1-Phenylethanol  ,CC(O)c1ccccc1
2111,-0.4,1.03,88.198,Phenylmethanol  ,OCc1ccccc1
2112,-2.92,-1.73,117.003,Phthalamide  ,NC(=O)c1ccccc1C(N)=O
2113,-2.38,1.07,97.599,Phthalonitrile  ,N#Cc1ccccc1C#N
2116,-2.84,2.35,42.705,Propane  ,CCC
2117,0.58,0.37,43.293,Propionaldehyde  ,CCC=O
2118,0.28,0.0842,43.317,Propionitrile  ,CCC#N
2119,-0.72,1.24,72.568,Propyl acetate  ,CCCOC(C)=O
2120,-3.37,3.74,108.859,Propyl benzene  ,CCCc1ccccc1
2121,-2.67,3.26,126.238,Propyl benzoate  ,CCCOC(=O)c1ccccc1
2122,-1.92,2.3,97.536,Propyl butyrate  ,CCCOC(=O)CCC
2123,-0.59,0.13,40.23,Propylene oxide  ,CC1CO1
2124,-0.49,0.83,60.084,Propyl formate  ,CCCOC=O
2125,-1.34,1.86,84.464,Propyl isopropyl ether  ,CCCOC(C)C
2126,-4.23,-0.7,53.019,Propyzamide  ,CCC(N)=O
2127,-6.18,5.17,172.62099999999995,Pyrene  ,c1cc2ccc3cccc4ccc(c1)c2c34
2128,-0.56,0.27,73.23899999999998,Quinone  ,O=C1C=CC(=O)C=C1
2129,-2.61,2.7,95.719,Styrene  ,C=Cc1ccccc1
2130,-1.6,1.61,93.9,Styrene oxide  ,c1ccc(C2CO2)cc1
2136,-5.26,4.6,140.862,"2,4,3,5-Tetrachloroanisole  ",COc1cc(Cl)c(Cl)c(Cl)c1Cl
2137,-5.13,4.45,140.862,"2,4,5,6-Tetrachloroanisole  ",COc1c(Cl)cc(Cl)c(Cl)c1Cl
2138,-4.7,4.18,124.071,"1,2,3,4-Tetrachlorobenzene  ",Clc1ccc(Cl)c(Cl)c1Cl
2139,-4.68,4.31,124.071,"1,2,3,5-Tetrachlorobenzene  ",Clc1cc(Cl)c(Cl)c(Cl)c1
2140,-5.47,4.23,124.071,"1,2,4,5-Tetrachlorobenzene  ",Clc1cc(Cl)c(Cl)cc1Cl
2166,-1.74,2.17,82.885,"1,1,2,2-Tetrachloroethane  ",ClC(Cl)C(Cl)Cl
2167,-2.18,2.48,82.885,"1,1,1,2-Tetrachloroethane  ",ClCC(Cl)(Cl)Cl
2168,-1.75,2.17,82.885,"1,1,2,2-Tetrachloroethane  ",ClC(Cl)C(Cl)Cl
2169,-2.54,2.95,82.229,Tetrachloroethylene  ,ClC(Cl)=C(Cl)Cl
2170,-2.74,2.95,82.229,Tetrachloroethylene  ,ClC(Cl)=C(Cl)Cl
2171,-2.31,2.86,70.40100000000002,Tetrachloromethane  ,ClC(Cl)(Cl)Cl
2173,-2.38,2.46,73.175,"1,2,4,5-Tetraflurobenzene  ",Fc1cc(F)c(F)cc1F
2174,1.15,0.33,52.714,Tetrahydrofuran  ,C1CCOC1
2175,-0.03,0.89,65.19800000000001,Tetrahydropyran  ,C1CCOCC1
2176,-4.59,4.06,121.343,"1,2,4,5-Tetramethylbenzene  ",Cc1cc(C)c(C)cc1C
2177,-2.21,2.68,83.891,Toluene  ,Cc1ccccc1
2183,-1.91,2.29,79.933,Tribromomethane  ,BrC(Br)Br
2184,0.72,1.27,78.333,"2,2,2-TriChloro-1,1-ethanediol  ",OC(O)C(Cl)(Cl)Cl
2185,-4.29,3.95,127.696,"2,3,4-Trichloroanisole  ",COc1ccc(Cl)c(Cl)c1Cl
2186,-4.2,3.95,127.696,"2,4,6-Trichloroanisole  ",COc1c(Cl)cc(Cl)cc1Cl
2187,-4.1,3.77,110.905,"1,2,3-Trichlorobenzene  ",Clc1cccc(Cl)c1Cl
2188,-3.61,3.82,110.905,"1,2,4-Trichlorobenzene  ",Clc1ccc(Cl)c(Cl)c1
2189,-4.6,4.04,110.905,"1,3,5-Trichlorobenzene  ",Clc1cc(Cl)cc(Cl)c1
2201,-2.0,2.1,69.719,"1,1,1-Trichloroethane  ",CC(Cl)(Cl)Cl
2202,-1.48,1.68,69.719,"1,1,2-Trichloroethane  ",ClCC(Cl)Cl
2203,-2.14,2.1,69.719,"1,1,1-Trichloroethane  ",CC(Cl)(Cl)Cl
2204,-1.96,2.26,69.063,Trichloroethylene  ,ClC=C(Cl)Cl
2205,-1.93,2.26,69.063,Trichloroethylene  ,ClC=C(Cl)Cl
2206,-3.04,2.09,70.161,"1,1,2-Trichlorofluoroethane  ",FC(Cl)(Cl)CCl
2207,-1.17,1.76,57.235,Trichloromethane  ,ClC(Cl)Cl
2208,-1.92,1.96,82.20299999999997,"1,2,3-Trichloropropane  ",ClCC(Cl)CCl
2209,-4.37,4.33,144.487,"3,4,5-Trichloroveratrole  ",COc1cc(Cl)c(Cl)c(Cl)c1OC
2210,0.3,0.66,48.338,"1,1,1,-Trifluoro-2-propanol  ",CC(O)C(F)(F)F
2211,-0.72,1.74,96.948,"2,3,3-Trimethyl-2-Butanol  ",CC(C)(C)C(C)(C)O
2212,-1.27,2.27,109.432,"2,2,3-Trimethyl-3-pentanol  ",CCC(C)(O)C(C)(C)C
2213,-3.2,3.6,108.859,"1,2,3,-Trimethylbenzene  ",Cc1cccc(C)c1C
2214,-3.31,3.6,108.859,"1,2,4-Trimethylbenzene  ",Cc1ccc(C)c(C)c1
2215,-3.4,3.6,108.859,"1,3,5-Trimethylbenzene  ",Cc1cc(C)cc(C)c1
2216,-4.74,4.46,105.125,"2,2,4-Trimethylpentane  ",CC(C)CC(C)(C)C
2217,-6.74,5.91,196.933,Triphenylene  ,c1ccc2c(c1)c1ccccc1c1ccccc21
2218,0.96,-2.11,37.777,Urea  ,NC(N)=O
2219,-0.85,1.44,68.26100000000001,Veleraldehyde  ,CCCCC=O
2220,-1.31,1.96,104.989,Veratrole  ,COc1ccccc1OC
2221,-3.3,3.9,162.773,Vernolate  ,CCCSC(=O)N(CCC)CCC
2223,-4.23,3.87,118.031,"1,1,3,4,4-Pentachloro-1,2-Butadiene  ",ClC(Cl)=C=C(Cl)C(Cl)Cl
2232,-0.71,1.13,135.635,Aldicarb,CNC(=O)ON=CC(C)(C)SC
2235,-2.56,2.4,152.838,Carbaril,CNC(=O)Oc1cccc2ccccc12
2236,-1.21,1.76,158.457,Carbofuran,CNC(=O)Oc1cccc2c1OC(C)(C)C2
2238,-3.14,3.0,175.86,Carboxin,CC1=C(C(=O)Nc2ccccc2)SCCO1
2241,-4.41,3.58,131.321,chloroneb,COc1cc(Cl)c(OC)cc1Cl
2242,-2.0,3.09,72.946,chloropicrin,O=[N+]([O-])C(Cl)(Cl)Cl
2245,-3.39,3.49,149.13,Chlorpropham,CC(C)OC(=O)Nc1cccc(Cl)c1
2246,0.32,0.51,55.121,t-Crotonaldehyde,CC=CC=O
2254,-2.38,2.65,97.335,"1,2-Dibromo-3-chloropropane",ClCC(Br)CBr
2256,-1.7,2.75,131.909,Dicamba,COc1c(Cl)ccc(Cl)c1C(=O)O
2261,-0.74,0.48,145.89700000000005,Dimethoate,CNC(=O)CSP(=S)(OC)OC
2262,0.88,-0.8,93.078,"1,5-Dimethoxydiethyl ether",COCCOCCOC
2266,-2.7,3.37,150.289,EPTC,CCCN(CCC)C(=O)SCC
2267,-2.73,1.82,30.221,Ethane,CC
2268,-1.82,2.82,120.836,Eucalyptol,CC12CCC(CC1)C(C)(C)O2
2269,-3.3,2.24,152.838,Fenfuram,Cc1occc1C(=O)Nc1ccccc1
2271,-1.41,2.3,65.445,Halothane,FC(F)(F)C(Cl)Br
2277,-3.41,3.9,162.773,Pebulate,CCCCN(CC)C(=O)SCCC
2282,-2.78,3.18,145.505,Propanil,CCC(=O)Nc1ccc(Cl)c(Cl)c1
2286,-1.9816,2.71,117.556,1-naphthol,Oc1cccc2ccccc12
2290,-1.0638,0.34,110.996,Acetaminophen,c1ccc(Cn2ccnc2)cc1
2297,-3.2078,0.67,177.50799999999995,Azathioprine,Nc1ccc(Br)cc1C(=O)O
2301,-4.6983,4.03,196.018,Carprofen,O=c1[nH]c2cc(Cl)ccc2o1
2305,-5.0706,4.82,248.183,Chlorpromazine,C#CCN(C)C(C)Cc1ccccc1
2307,-6.7447,6.05,250.285,Chlorprothixene,CC1=NS(=O)(=O)c2cc(Cl)ccc2N1
2308,-2.6565,2.19,104.896,Chlorzoxazone,Oc1ccc(I)cc1
2316,-3.5998,3.68,271.242,Difloxacin,CC(C(=O)O)c1cccc(Oc2ccccc2)c1
2319,-3.8561,2.52,188.859,diphenylhydantoin,O=C(O)c1cc(Br)c(O)cc1O
2320,-3.1811,2.54,247.8,Enrofloxacin,CC(C(=O)O)c1ccc(-c2ccccc2)c(F)c1
2322,-3.6982,3.84,184.215,Fenoprofen,Nc1nc2nc[nH]c2c(=O)[nH]1
2323,-5.3546,5.62,178.476,Flufenamic acid,CN1C(=O)NC(=O)C(C)(C2=CCCCC2)C1=O
2325,-4.1518,4.12,180.35,Flurbiprofen,O=C(O)c1ccc(O)cc1
2326,-5.4881,2.01,311.155,Glipizide,CC(C)Cc1ccc(C(C)C(=O)O)cc1
2329,-2.9665,0.36,168.77700000000004,Hydroflumethiazide,Cc1cccc(Nc2ccccc2C(=O)O)c1C
2330,-1.4644,1.42,93.093,5-hydroxybenzoic acid,CC(=O)Nc1ccc(O)cc1
2332,-2.3328,2.37,230.056,Lomefloxacin,Cc1ncc([N+](=O)[O-])n1CCO
2334,-6.7447,5.33,189.634,Mefenamic acid,CCn1cc(C(=O)O)c(=O)c2ccc(C)nc21
2336,-1.2214,-0.01,108.47,Metronidazole,COc1ccc2cc(C(C)C(=O)O)ccc2c1
2338,-3.6101,1.0,160.745,Nalidixic acid,O=C1CN(N=Cc2ccc([N+](=O)[O-])o2)C(=O)N1
2341,-4.5789,4.94,172.655,Niflumic acid,CC(=O)Nc1nnc(S(N)(=O)=O)s1
2345,-1.2655,2.74,239.623,Ofloxacin,c1cnc2c(c1)ccc1cccnc12
2346,-3.0881,-1.5,296.551,Oxytetracycline,Nc1ccc(N=Nc2ccccc2)c(N)n1
2347,-3.8672,3.74,253.23,Papaverine,CCC1(c2ccccc2)C(=O)NC(=O)NC1=O
2349,-4.1933,3.34,163.862,Phenazopyridine,O=C(O)c1ccccc1C(=O)O
2350,-2.2935,1.67,160.745,Phenobarbital,CC(C)NCC(O)COc1cccc2[nH]ccc12
2352,-1.4927,0.81,106.165,Phthalic acid,C=CCc1ccccc1OCC(O)CNC(C)C
2353,-3.7881,1.97,191.907,Pindolol,CCN(CC)CCOC(=O)c1ccc(N)cc1
2359,-3.1334,2.99,258.758,Sarafloxacin,CC(=O)NS(=O)(=O)c1ccc(N)cc1
2363,-6.1367,3.18,266.316,Sulfasalazine,NC12CC3CC(CC(C3)C1)C2
2367,-2.926,0.16,292.244,Tetracycline,Cc1ccc(C(C)C)c(O)c1
2372,-4.7889,5.15,250.103,Trimipramine,NCCc1c[nH]c2ccccc12
2379,-5.593,3.58,175.355,None,CN1c2ccccc2Sc2ccccc21
2380,-1.7380000000000002,0.31,124.068,None,O=C(O)CNC(=O)c1ccccc1
2381,-3.065,0.93,144.291,None,C1=NC=NC2N=C(c3ccccc3)N=C12
2385,-1.959,2.4,118.061,None,CCOC(=O)c1ccc(O)cc1
2386,-2.7060000000000004,2.93,130.545,None,CCCOC(=O)c1ccc(O)cc1
2387,-2.511,0.98,140.705,None,O=C1CC(=O)CC(c2ccccc2)C1
2388,-2.987,3.46,143.029,None,CCCCOC(=O)c1ccc(O)cc1
2389,-3.553,2.47,131.13299999999998,None,COC(=O)c1ccc(C(=O)OC)cc1
2390,-3.509,3.24,144.289,None,Cc1ccc(S(=O)(=O)N(Cl)Cl)cc1
2392,-2.312,1.63,132.55200000000002,None,CCC1OC(=O)c2cc(C#N)ccc21
2393,-2.676,2.74,158.18200000000004,None,CCNc1nc(NCC)nc(SC)n1
2395,-1.367,-0.49,139.059,None,CC1=Nc2ccccc2N=C(C)C1
2396,-2.654,1.99,125.761,None,Cc1ccc2c(c1)C=CS2(=O)=O
2397,-3.056,3.01,148.44799999999995,None,CCCCOC(=O)c1ccc(N)cc1
2400,-2.369,3.21,143.507,None,CCSC(=O)N1CCCCCC1
2401,-2.665,2.12,125.761,None,CC1=CS(=O)(=O)c2ccccc21
2402,-2.222,1.08,145.21200000000005,None,CC1(C)SCC(COC(N)=O)S1
2403,-2.6210000000000004,2.65,124.136,None,CCOC(=O)c1[nH]c(C)cc1C
2404,-1.886,0.82,139.764,None,NC(=O)OCC1COC2(CCCCC2)O1
2405,-3.522,2.12,175.882,None,NC(=O)OCC1CSC2(CCCCC2)S1
2406,-3.012,2.67,187.615,None,NC(=O)N1c2ccccc2C=Cc2ccccc21
2407,-5.227,3.34,153.121,None,Cc1cc2cc3c(C)cc(=O)oc3cc2o1
2408,-3.319,2.79,136.703,None,Cc1cc2cccc(O)c2nc1C
2409,-1.088,2.17,124.807,None,O=C(O)c1ccc2ccccc2n1
2410,-0.043,1.81,124.807,None,O=C(O)c1ccc2ncccc2c1
2411,-3.73,2.8,134.684,None,c1ccc2c(c1)[nH]c1cnccc12
2413,-2.824,1.32,157.82299999999995,None,NC(=O)OCC1CSC2(CCCCC2)O1
2414,-1.742,1.0,124.807,None,O=C(O)c1cccc2cccnc12
2415,-2.675,1.76,124.807,None,O=C(O)c1cccc2ncccc12
2417,-3.114,2.08,171.209,None,CC(C)C1OCC2(CO1)COC(C(C)C)OC2
2418,-2.677,1.61,121.78,None,COc1cc(OC)cc(OC)c1
2419,-1.837,2.48,132.901,None,CCCCOC(=O)c1cccnc1
2420,-1.5519999999999998,0.23,124.815,None,CSc1cnc2cncnc2n1
2421,-1.756,0.0206,124.815,None,CSc1ncc2nccnc2n1
2422,-1.144,0.0172,127.417,None,Cc1ncc2nc(C)c(C)nc2n1
2423,-0.599,-0.39,112.24,None,O=C(O)CCn1ccccc1=O
2428,-0.8490000000000001,1.71,143.366,None,CC1(C)N=C(c2ccccc2)NC1=O
2429,-3.064,1.04,118.225,None,O=[N+]([O-])c1cc2c(cc1CO)OCO2
2430,-3.682,2.61,180.496,None,COC(=O)c1ccccc1C(=O)c1ccccc1
2432,-0.12,0.72,139.901,None,CCc1nc2cncnc2nc1CC
2433,-0.938,1.96,139.364,None,Cc1cc(N)n(-c2ccccc2)n1
2434,-2.907,1.64,132.55200000000002,None,CC1(C)OC(=O)c2cc(C#N)ccc21
2435,-2.365,-0.78,124.815,None,CSc1ncnc2nccnc12
2436,-3.122,1.78,123.107,None,COc1ccc2ccc(=O)oc2c1
2437,-3.62,1.17,142.71,None,C=CCc1ccc2cncnc2c1O
2438,-2.131,1.37,125.022,None,CCOS(=O)(=O)c1ccccc1
2439,-1.21,1.76,158.457,None,CNC(=O)Oc1cccc2c1OC(C)(C)C2
2440,0.359,-1.23,124.659,None,CN(C)c1ncc2nccnc2n1
2441,-0.022,-0.11,124.659,None,CN(C)c1cnc2cncnc2n1
2442,-5.5920000000000005,3.32,162.871,None,c1ccc2c(c1)Nc1ccccc1S2
2443,-2.037,1.43,128.526,None,O=C(O)Cc1c[nH]c2ccccc12
2445,-3.794,3.26,147.168,None,Cc1nccc2c1[nH]c1ccccc12
2446,-1.67,2.42,151.84799999999996,None,Cc1nn(-c2ccccc2)c(N)c1C
2447,-4.53,2.06,121.729,None,CCC1(CC)CCC(=O)NC1=O
2448,-1.743,-1.03,124.478,None,CCOC(=O)c1cnc(=S)[nH]c1
2449,-4.572,2.74,155.119,None,O=S1(=O)c2ccccc2-c2ccccc21
2450,-2.9210000000000003,1.67,143.366,None,CCCc1ncnc2c(O)cccc12
2451,-2.055,1.75,135.623,None,O=[N+]([O-])Cc1ccc2ccccc2n1
2452,-3.8,1.14,128.71200000000002,None,ON=C1C=CC(=NO)c2ncccc21
2453,-2.522,2.66,163.28799999999995,None,CCCCCCNC(=O)c1cccnc1
2454,-0.731,-0.32,149.559,None,Cc1ccnc(NC(=O)c2cnccn2)n1
2455,-1.917,0.57,143.939,None,CCC1(C)NC(=O)C(C)(CC)NC1=O
2456,-3.716,1.76,160.39600000000004,None,O=c1ccc2nc3ccccc3sc-2c1
2457,-2.977,0.38,148.717,None,O=C(Nc1ccccn1)c1cccnc1
2458,-0.451,-0.16,95.01,None,FC(F)(F)c1nc2ncncc2[nH]1
2459,-2.287,-0.4,119.24,None,Cc1nc2nc[nH]c(=O)c2nc1C
2460,-4.353,4.72,184.12,None,Cc1ccc(-c2nc3ccccc3s2)cc1
2461,-3.74,1.67,128.153,None,O=c1ccc2cc3ccoc3cc2o1
2462,-2.027,1.19,152.838,None,Cc1c(O)c(=O)ccn1-c1ccccc1
2463,-3.222,1.65,165.322,None,Cc1ccc(-n2ccc(=O)c(O)c2C)cc1
2464,-3.933,1.97,191.907,None,CC(C)NCC(O)COc1cccc2[nH]ccc12
2465,-3.197,3.19,175.77200000000005,None,CCCCCCCNC(=O)c1cccnc1
2466,-3.487,2.67,138.991,None,c1coc(-c2nc3ccccc3[nH]2)c1
2468,-2.412,-2.8,100.598,None,CC1=NC(=O)C(C(N)=O)C(=O)N1
2469,-2.884,2.01,127.414,None,COc1c(C(=O)O)oc2ccccc12
2470,-3.042,0.66,122.705,None,Cc1ccc2[nH]c(=O)c(=O)[nH]c2c1
2471,-3.624,-1.08,94.121,None,O=c1[nH]c(=O)c2[nH]c(=O)[nH]c2[nH]1
2472,-4.035,-0.68,112.18,None,O=c1[nH]c(=S)c2[nH]c(=O)[nH]c2[nH]1
2473,-2.854,0.28,122.705,None,O=C1CNC(=O)c2ccccc2N1
2474,-1.022,-0.62,124.659,None,CN(C)c1ncnc2nccnc12
2475,-2.6,0.25,129.77,None,CC(=O)Nc1ccc2c(c1)C(=O)OC2
2476,-2.651,0.61,110.199,None,O=C1OCc2ccc([N+](=O)[O-])cc21
2477,-2.319,2.06,156.506,None,O=C(NC1CCCCC1)c1cccnc1
2478,-4.462,2.64,166.06099999999995,None,Cn1c2ccccc2c(=O)c2ccccc21
2479,-1.882,0.63,128.07,None,COc1ccc2c(c1OC)C(=O)OC2
2480,-3.0410000000000004,0.46,149.627,None,CCc1nc2cnc(N)nc2nc1CC
2481,-1.444,1.18,151.79399999999995,None,CC(=O)CC(CC(=O)O)c1ccccc1
2482,-1.696,-0.54,125.366,None,Nc1nc(=O)[nH]n1-c1ccccc1
2483,-2.197,2.16,168.183,None,CC=CCC1(CC=CC)C(=O)NC(=O)NC1=O
2484,-2.468,-0.54,125.366,None,Nc1nc(=O)n(-c2ccccc2)[nH]1
2485,-1.099,-0.78,99.232,None,O=C(O)c1cc(=O)cc(C(=O)O)o1
2486,-1.489,-1.27,119.24,None,Cc1nc2cncnc2n(C)c1=O
2487,-2.397,0.64,119.559,None,CCC1(CC)C(=O)NC(=O)NC1=O
2488,-2.324,1.58,137.618,None,CCC1(CC)C(=O)NC(=S)NC1=O
2489,-2.101,1.73,132.528,None,O=C1CC(C(=O)O)Cc2ccccc21
2490,-3.194,1.4,144.661,None,O=C(c1ccco1)N(O)c1ccccc1
2491,-2.62,-0.72,114.782,None,Cn1cnc2c1c(=O)[nH]c(=O)n2C
2492,-0.976,1.1,140.608,None,Cc1cc(Oc2ccccn2)nn1C
2493,-0.7709999999999999,1.08,119.947,None,Nc1nnc(-c2ccc(O)cc2)o1
2495,-3.008,3.72,188.256,None,CCCCCCCCNC(=O)c1cccnc1
2496,-2.089,-1.18,119.157,None,CC12CC(C)(NC(=O)N1)NC(=O)N2
2497,-2.313,1.63,168.907,None,CCC1(CC)NC(=O)C(CC)(CC)NC1=O
2498,-2.309,-0.0517,110.726,None,Cc1[nH]c(=O)[nH]c(=O)c1CC(=O)O
2499,-3.335,-3.48,102.886,None,O=c1cnc2c(=O)[nH]c(=O)[nH]c2[nH]1
2500,-2.06,1.11,143.215,None,C=CCC1(CC=C)C(=O)NC(=O)NC1=O
2501,-1.626,-0.64,98.242,None,O=C(O)Cc1c[nH]c(=O)[nH]c1=O
2502,-2.283,2.69,157.19799999999995,None,CCCCCCCCNC(=O)C(C)O
2503,-1.284,0.36,144.61,None,CCN(CC)S(=O)N(CC)CC
2504,-1.121,0.38,120.358,None,CC(C)C(NCCC#N)C(=O)O
2505,-0.984,0.91,132.842,None,CCC(C)C(NCCC#N)C(=O)O
2506,-0.174,-0.0584,133.454,None,CC(C(=O)O)N(CCC#N)CCC#N
2510,-1.6780000000000002,2.37,95.225,None,O=[N+]([O-])OCCCCO[N+](=O)[O-]
2512,-1.659,1.98,95.225,None,CC(CCO[N+](=O)[O-])O[N+](=O)[O-]
2513,-0.534,-2.04,115.406,None,NCC(=O)NCC(=O)NCC(=O)O
2514,-2.216,2.32,107.709,None,CC(CC(C)O[N+](=O)[O-])O[N+](=O)[O-]
2515,-2.188,1.95,107.709,None,O=[N+]([O-])OCCCCCO[N+](=O)[O-]
2516,-1.143,1.35,170.90599999999995,None,CC(C)CC(C(=O)O)N(CCC#N)CCC#N
2517,-2.675,3.06,120.193,None,CC(CCC(C)O[N+](=O)[O-])O[N+](=O)[O-]
2519,-0.695,-1.12,135.916,None,CC(O)C(O)C(O)C(O)C=NNC(N)=O
2520,-1.912,0.67,144.208,None,CCc1nc2nc[nH]c(=O)c2nc1CC
2524,-1.349,-2.6,138.204,None,NC(=O)NCC(=O)NCC(=O)NCC(=O)O
2527,-3.4560000000000004,-2.62,99.54,None,Nc1[nH]c(=O)[nH]c2nc(=O)[nH]c1-2
2528,-2.931,0.63,149.627,None,CCc1nc2ncnc(N)c2nc1CC
2530,-1.71,2.19,144.915,None,COc1cc2nccnc2c(N)c1OC
2531,-1.137,1.94,126.811,None,CCCCCCOC(=O)C(C)O
2532,-1.273,3.0,151.779,None,CCCCCCCCOC(=O)C(C)O
2533,-0.68,0.53,120.334,None,CCCCC(NC(C)=O)C(=O)O
2534,-0.685,0.35,120.334,None,CCC(C)C(NC(C)=O)C(=O)O
2535,-1.888,1.86,95.225,None,CC(O[N+](=O)[O-])C(C)O[N+](=O)[O-]
2536,0.054000000000000006,-1.79,120.237,None,N=C(N)NCCCC(N)C(=O)O
2537,-2.1590000000000003,0.35,117.576,None,CCCCC(NC(N)=O)C(=O)O
2538,0.032,-0.19,130.216,None,CSCCC(NC(C)=O)C(=O)O
2539,-2.04,-1.18,146.555,None,O=S(CCCl)CCS(=O)CCCl
2540,-0.615,2.08,134.679,None,CC(SSC(C)C(=O)O)C(=O)O
2541,-0.431,-0.0934,130.06,None,CC(C)CC(NC(=O)CN)C(=O)O
2542,-0.705,0.98,137.281,None,CCC(SC(CC)C(=O)O)C(=O)O
2543,-1.823,1.58,147.16299999999995,None,CC(SCSC(C)C(=O)O)C(=O)O
2544,-2.891,1.38,159.64700000000005,None,CSC(CCC(SC)C(=O)O)C(=O)O
2545,-0.404,0.6,155.028,None,CC(C)C(N)C(=O)NC(C(=O)O)C(C)C
2546,-2.555,-0.12,131.765,None,NC(CSCC(N)C(=O)O)C(=O)O
2547,-0.173,1.13,167.512,None,CC(C)CC(N)C(=O)NC(C(=O)O)C(C)C
2548,-0.711,-2.24,112.745,None,CC(=O)NC(CCC(=O)O)C(=O)O
2549,0.016,-1.47,123.432,None,NC(=O)NN=CC(O)C(O)C(O)CO
2550,-1.286,2.06,147.751,None,CCSC(=S)OC(CC(=O)O)C(=O)O
2551,-1.699,1.23,153.17,None,CCOC(=S)SC(CC(N)=O)C(=O)O
2552,-1.186,2.06,147.751,None,CCOC(=S)SC(CC(=O)O)C(=O)O
2553,-0.102,-1.05,119.81,None,CC(CC(C)(C(=O)O)C(=O)O)C(=O)O
2555,-0.687,1.66,179.99599999999995,None,CC(C)CC(N)C(=O)NC(CC(C)C)C(=O)O
2558,0.309,-0.28,165.342,None,CC(C)CC(N)C(=O)NCC(=O)NCC(=O)O
2560,-0.111,-0.28,165.342,None,CC(C)CC(NC(=O)CNC(=O)CN)C(=O)O
2562,-3.14,4.25,200.74,None,CCCCCCCCCNC(=O)c1cccnc1
2563,-1.921,2.42,155.498,None,CCCCCCCCOCC(O)CO
2564,-1.971,-0.11,117.696,None,NNC(=O)c1ccc([N+](=O)[O-])s1
2565,-0.304,-0.78,137.075,None,O=C(Nc1ncccn1)c1cnccn1
2566,-0.949,1.62,132.23,None,CCCCCCNC(=O)C(C)O
2567,-2.627,1.33,139.548,None,NS(=O)(=O)c1nc2ccccc2s1
2568,-2.235,1.22,151.033,None,OC(=S)CCCCCCC(O)=S
2569,-1.717,3.76,178.239,None,CCCCOP(=O)(CCCC)CCCC
2570,-0.996,0.83,125.753,None,CCCC(=O)NNC(=O)CCC
2571,0.375,-0.95,125.753,None,CCC(=O)NCCNC(=O)CC
2572,-1.143,0.92,148.917,None,CCN(CC)S(=O)(=O)N(CC)CC
2573,-3.361,3.75,182.166,None,CCCCCCCCCCNC(=O)C(C)O
2574,-3.0610000000000004,4.06,176.747,None,CCCCCCCCCCOC(=O)C(C)O
2575,-2.1590000000000003,-0.67,117.576,None,NC(=O)NCCCCCC(=O)O
2576,-2.389,1.75,163.517,None,OC(=S)CCCCCCCC(O)=S
2577,-2.747,1.56,137.58100000000002,None,C=CCC(C(=O)NC(N)=O)C(C)C
2578,-3.069,2.28,176.00099999999995,None,OC(=S)CCCCCCCCC(O)=S
2579,-1.329,1.68,127.399,None,CCOC(=O)CCCC(=O)OCC
2580,-0.112,-2.55,109.399,None,O=C(NCCO)C(=O)NCCO
2581,-0.19,1.38,134.679,None,O=C(O)CCSSCCC(=O)O
2582,0.46,-0.41,120.97,None,N#CCCN(CCC#N)CC(=O)O
2583,-0.622,0.12,150.721,None,CCCC(=O)NCCNC(=O)CCC
2584,-2.725,1.97,123.704,None,COC(=O)C(C#N)C(=O)CC(C)C
2585,-2.156,1.9,150.721,None,CCCCC(=O)NNC(=O)CCCC
2586,-1.68,2.09,139.88299999999998,None,CCOC(=O)CCCCC(=O)OCC
2587,-0.586,1.21,132.162,None,CCOC(=O)CNC(C)=CC(C)=O
2588,-1.795,1.41,160.157,None,CC1(C)NC(=O)N(Cc2ccccc2)C1=O