,Expt,ClogP,Polarizability,Name,smiles
649,-3.36,1.6,228.114,RTI 6,CCN1c2nc(N(C)CCO)ccc2NC(=O)c2cccnc21
652,-3.19,1.84,194.815,nevirapine,Cc1ccnc2c1NC(=O)c1cccnc1N2C1CC1
653,-3.32,1.57,194.93400000000003,RTI 5,CCN1c2ccccc2N(C)C(=O)c2cccnc21
654,-4.87,2.71,229.628,RTI 22,CCN1c2cc(N(C)C)cc(C)c2NC(=O)c2cccnc21
655,-5.15,2.57,211.725,RTI 23,CCN1c2cc(OC)cc(C)c2NC(=O)c2cccnc21
656,-2.86,1.54,201.597,RTI 2,CCN1C(=O)c2cccnc2N(CC)c2ncccc21
657,-2.62,1.0,189.113,reverse Transcriptase inhibitor 1,CCN1c2ncccc2C(=O)N(C)c2cccnc21
666,-1.95,-0.12,169.613,tubercidin,Nc1ncnc2c1ccn2C1OC(CO)C(O)C1O
667,-1.23,-1.91,158.373,Inosine,OCC1OC(n2cnc3c(O)ncnc32)C(O)C1O
669,-3.68,-2.02,245.037,riboflavin,Cc1cc2nc3c(=O)[nH]c(=O)nc-3n(CC(O)C(O)C(O)CO)c2cc1C
670,-2.68,0.54,167.035,thalidomide,O=C1CCC(N2C(=O)c3ccccc3C2=O)C(=O)N1
678,-3.14,2.83,278.211,noscapine,COc1ccc2c(c1OC)C(=O)OC2C1c2c(cc3c(c2OC)OCO3)CCN1C
679,-4.11,2.66,261.42,hydrastine,COc1ccc2c(c1OC)C(=O)OC2C1c2cc3c(cc2CCN1C)OCO3
682,-1.42,-0.13,357.608,rolitetracycline,CN(C)C1C(O)=C(C(=O)NCN2CCCC2)C(=O)C2(O)C(O)=C3C(=O)c4c(O)cccc4C(C)(O)C3CC12
684,-3.46,2.66,212.783,piperine,O=C(C=CC=Cc1ccc2c(c1)OCO2)N1CCCCC1
688,-3.64,-0.77,295.934,trimazosin,COc1cc2c(N)nc(N3CCN(C(=O)OCC(C)(C)O)CC3)nc2c(OC)c1OC
690,-2.98,0.99,205.046,pipedemic acid,CCn1cc(C(=O)O)c(=O)c2cnc(N3CCNCC3)nc21
703,-2.63,3.68,232.737,hydrocinchonine,CCC1CN2CCC1CC2C(O)c1ccnc2ccccc12
704,-2.76,3.44,248.872,quinidine,C=CC1CN2CCC1CC2C(O)c1ccnc2ccc(OC)cc12
705,-3.07,3.35,232.081,cinchonidine,C=CC1CN2CCC1CC2C(O)c1ccnc2ccccc12
709,-0.17,-1.1,160.84799999999996,dyphylline,Cn1c(=O)c2c(ncn2CC(O)CO)n(C)c1=O
712,-1.23,-2.32,158.373,Inosine,O=c1[nH]cnc2c1ncn2C1OC(CO)C(O)C1O
714,-2.6,0.82,190.171,ancymidol,COc1ccc(C(O)(c2cncnc2)C2CC2)cc1
720,-4.88,2.12,205.165,benomyl,CCCCNC(=O)n1c(NC(=O)OC)nc2ccccc21
725,-2.92,2.5,197.036,methaqualone,Cc1ccccc1-n1c(C)nc2ccccc2c1=O
726,-7.42,6.18,224.189,"13H-dibenzo(a,i)carbazole",c1ccc2c(c1)ccc1c3ccc4ccccc4c3[nH]c21
737,-3.93,4.64,389.102,norbormide,O=C1NC(=O)C2C3C(C(O)(c4ccccc4)c4ccccn4)=CC(C3=C(c3ccccc3)c3ccccn3)C12
741,-1.13,0.56,194.746,cycloheximide,CC1CC(C)C(=O)C(C(O)CC2CC(=O)NC(=O)C2)C1
742,-6.52,5.42,306.11,3-octanoyloxymethylphenytoin,CCCCCCCC(=O)OCN1C(=O)NC(c2ccccc2)(c2ccccc2)C1=O
743,-6.3,4.89,293.626,3-heptanoyloxymethylphenytoin,CCCCCCC(=O)OCN1C(=O)NC(c2ccccc2)(c2ccccc2)C1=O
744,-5.89,4.36,281.142,3-hexanoyloxymethylphenyltoin,CCCCCC(=O)OCN1C(=O)NC(c2ccccc2)(c2ccccc2)C1=O
745,-4.68,3.83,268.658,3-pentanoyloxymethylphenytoin,CCCCC(=O)OCN1C(=O)NC(c2ccccc2)(c2ccccc2)C1=O
746,-5.07,3.3,256.17400000000004,3-butanoyloxymethylphenytoin,CCCC(=O)OCN1C(=O)NC(c2ccccc2)(c2ccccc2)C1=O
747,-4.91,2.77,243.69,3-propanoyloxymethylphenytoin,CCC(=O)OCN1C(=O)NC(c2ccccc2)(c2ccccc2)C1=O
748,-4.47,2.24,231.206,3-ethanoyloxymethylphenytoin,CC(=O)OCN1C(=O)NC(c2ccccc2)(c2ccccc2)C1=O
749,-4.1,2.52,188.859,phenytoin,O=C1NC(=O)C(c2ccccc2)(c2ccccc2)N1
756,-2.6,4.39,218.658,antazoline,c1ccc(CN(CC2=NCCN2)c2ccccc2)cc1
767,-1.61,0.42,187.732,anisomycin,COc1ccc(CC2NCC(O)C2OC(C)=O)cc1
781,-3.88,2.83,211.657,mebendazole,COC(=O)Nc1nc2ccc(C(=O)c3ccccc3)cc2[nH]1
782,-3.36,2.83,211.657,mebendazole,COC(=O)Nc1nc2cc(C(=O)c3ccccc3)ccc2[nH]1
794,-2.64,2.04,180.243,reposal,CCC1(C2=CC3CCC(C2)C3)C(=O)NC(=O)NC1=O
795,-2.7,2.04,180.243,reposal,CCC1(C2=CCC3CCC2C3)C(=O)NC(=O)NC1=O
797,-3.0,2.18,174.541,heptabarbital,CCC1(C2=CCCCCC2)C(=O)NC(=O)NC1=O
814,-1.99,-0.37,142.607,alloxanthin,O=C1NC(=O)C(O)(C2(O)C(=O)NC(=O)NC2=O)C(=O)N1
824,-3.54,1.72,219.044,apazone,CCCC1C(=O)N2C(N(C)C)=Nc3ccc(C)cc3N2C1=O
825,-3.73,2.72,243.102,oxyphenbutazone,CCCCC1C(=O)N(c2ccccc2)N(c2ccc(O)cc2)C1=O
826,-3.81,3.16,238.795,phenylbutazone,CCCCC1C(=O)N(c2ccccc2)N(c2ccccc2)C1=O
827,-3.27,1.25,239.383,Kebuzone,CC(=O)CCC1C(=O)N(c2ccccc2)N(c2ccccc2)C1=O
833,-5.51,4.7,254.636,danazol,C#CC1(O)CCC2C3CCC4=Cc5oncc5CC4(C)C3CCC21C
836,-5.82,4.16,152.94799999999995,quintozene,O=[N+]([O-])c1c(Cl)c(Cl)c(Cl)c(Cl)c1Cl
837,-4.47,3.57,195.112,medinoterb acetate,CC(=O)Oc1c(C(C)(C)C)cc([N+](=O)[O-])c(C)c1[N+](=O)[O-]
838,-5.47,5.86,186.027,dinitramine,CCN(CC)c1c([N+](=O)[O-])cc(C(F)(F)F)c(N)c1[N+](=O)[O-]
839,-5.53,5.41,201.269,benfluralin,CCCCN(CC)c1c([N+](=O)[O-])cc(C(F)(F)F)cc1[N+](=O)[O-]
840,-5.68,5.41,201.269,trifluralin,CCCN(CCC)c1c([N+](=O)[O-])cc(C(F)(F)F)cc1[N+](=O)[O-]
841,-6.78,5.91,243.579,flumetralin,CCN(Cc1c(F)cccc1Cl)c1c([N+](=O)[O-])cc(C(F)(F)F)cc1[N+](=O)[O-]
842,-6.12,5.1,200.613,ethalfluralin,C=C(C)CN(CC)c1c([N+](=O)[O-])cc(C(F)(F)F)cc1[N+](=O)[O-]
843,-6.49,5.3,224.911,Isopropalin,CCCN(CCC)c1c([N+](=O)[O-])cc(C(C)C)cc1[N+](=O)[O-]
847,-5.16,3.38,221.525,oryzalin,CCCN(CCC)c1c([N+](=O)[O-])cc(S(N)(=O)=O)cc1[N+](=O)[O-]
850,-4.04,3.24,174.421,fenitrothion,COP(=S)(OC)Oc1ccc([N+](=O)[O-])c(C)c1
852,-4.76,2.97,235.864,nifedipine,COC(=O)C1=C(C)NC(C)=C(C(=O)OC)C1c1ccccc1[N+](=O)[O-]
860,-3.8,1.39,212.747,nimetazepam,CN1C(=O)CN=C(c2ccccc2)c2cc([N+](=O)[O-])ccc21
861,-3.5,2.34,213.429,clonazepam,O=C1CN=C(c2ccccc2Cl)c2cc([N+](=O)[O-])ccc2N1
862,-3.8,2.18,200.263,nitrazepam,O=C1CN=C(c2ccccc2)c2cc([N+](=O)[O-])ccc2N1
864,-4.7,5.4,206.709,niclosamide,O=C(Nc1ccc([N+](=O)[O-])cc1Cl)c1cc(Cl)ccc1O
865,-4.31,3.46,175.10299999999995,dicaphton,COP(=S)(OC)Oc1ccc([N+](=O)[O-])cc1Cl
874,-2.11,1.02,194.798,chloramphenicol,O=C(NC(CO)C(O)c1ccc([N+](=O)[O-])cc1)C(Cl)Cl
880,-5.46,4.92,183.911,nitrofen,O=[N+]([O-])c1ccc(Oc2ccc(Cl)cc2Cl)cc1
883,-4.66,3.84,186.905,parathion,CCOP(=S)(OCC)Oc1ccc([N+](=O)[O-])cc1
884,-3.68,2.78,161.937,parathion methyl,COP(=S)(OC)Oc1ccc([N+](=O)[O-])cc1
887,-2.81,0.91,180.631,benznidazole,O=C(Cn1ccnc1[N+](=O)[O-])NCc1ccccc1
904,-3.12,-1.47,292.244,tetracycline,CN(C)C1C(O)=C(C(N)=O)C(=O)C2(O)C(O)=C3C(=O)c4c(O)cccc4C(C)(O)C3CC12
905,-1.42,-0.45,265.139,rolitetracycline,CN(C)C1C(O)=CC(=O)C2(O)C(O)=C3C(=O)c4ccccc4C(C)(O)C3CC12
906,-3.14,-1.5,296.551,oxytetracycline,CN(C)C1C(O)=C(C(N)=O)C(=O)C2(O)C(O)=C3C(=O)c4c(O)cccc4C(C)(O)C3C(O)C12
907,-2.87,-0.54,292.244,doxycycline,CC1c2cccc(O)c2C(=O)C2=C(O)C3(O)C(=O)C(C(N)=O)=C(O)C(N(C)C)C3C(O)C21
914,-0.77,-0.36,280.608,amygdalin,N#CC(OC1OC(COC2OC(CO)C(O)C(O)C2O)C(O)C(O)C1O)c1ccccc1
915,-6.03,5.48,265.433,fenpropathrin,CC1(C)C(C(=O)OC(C#N)c2cccc(Oc3ccccc3)c2)C1(C)C
918,-4.46,4.92,239.721,amitriptyline,CN(C)CCC=C1c2ccccc2CCc2ccccc21
919,-3.4,3.86,231.544,doxepin,CN(C)CCC=C1c2ccccc2COc2ccccc21
920,-2.64,2.84,213.612,tripelenamine,CN(C)CCN(Cc1ccccc1)c1ccccn1
921,-3.7,3.87,269.099,dibucaine,CCCCOc1cc(C(=O)NCCN(CC)CC)c2ccccc2n1
923,-3.84,4.81,227.659,stadacaine,CCCCOc1ccc(C(=O)OCCN(CC)CC)cc1
924,-2.71,3.75,202.691,parethoxycaine,CCOc1ccc(C(=O)OCCN(CC)CC)cc1
926,-3.84,5.36,227.659,stadacaine,CCCCOc1ccc(C(=O)OCC)c(N(CC)CC)c1
930,-3.57,3.24,215.258,Napropamide,CCN(CC)C(=O)C(C)Oc1cccc2ccccc12
932,-3.35,3.01,220.021,methyldymron,CN(C(=O)NC(C)(C)c1ccccc1)c1ccccc1
943,-2.93,1.66,205.94,kasugamycin,CN(C)C(=O)Nc1cccc(OC(=O)NC(C)(C)C)c1
945,-4.16,2.02,216.151,difenoxuron,COc1ccc(Oc2ccc(NC(=O)N(C)C)cc2)cc1
948,-5.47,5.64,246.689,amitraz,Cc1ccc(N=CN(C)C=Nc2ccc(C)cc2C)c(C)c1
949,-1.6,2.15,203.279,metalaxyl,COCC(=O)N(c1c(C)cccc1C)C(C)C(=O)OC
978,-3.21,0.96,445.096,pimaricin,CC1CC=CC=CC=CC=CC(OC2OC(C)C(O)C(N)C2O)CC2OC(O)(CC(O)CC3OC3C=CC(=O)O1)CC(O)C2C(=O)O
979,-2.4,1.34,185.297,triamterene,Nc1nc(N)c2nc(-c3ccccc3)c(N)nc2n1
980,-2.1,0.46,237.503,tetroxoprim,COCCOc1c(OC)cc(Cc2cnc(N)nc2N)cc1OC
981,-2.86,0.79,208.228,trimethoprim,COc1cc(Cc2cnc(N)nc2N)cc(OC)c1OC
1024,-4.8,3.46,216.739,phenmedipham,COC(=O)Nc1cccc(OC(=O)Nc2cccc(C)c2)c1
1025,-4.63,3.53,216.739,desmedipham,CCOC(=O)Nc1cccc(OC(=O)Nc2ccccc2)c1
1044,-0.5,-3.34,360.457,amikacin,NCCC(O)C(=O)NC1CC(N)C(OC2OC(CN)C(O)C(O)C2O)C(O)C1OC1OC(CO)C(O)C(N)C1O
1050,-4.7,3.83,223.216,fenoxycarb,CCOC(=O)NCCOc1ccc(Oc2ccccc2)cc1
1051,-3.27,3.2,195.626,naepaine,CCCCCNCCOC(=O)c1ccc(N)cc1
1057,-5.15,1.49,330.839,glycocholic acid,CC(CCC(=O)NCC(=O)O)C1CCC2C3C(O)CC4CC(O)CCC4(C)C3CC(O)C12C
1066,-4.24,4.54,210.868,butacarb,CNC(=O)Oc1cc(C(C)(C)C)cc(C(C)(C)C)c1
1089,-1.84,0.00811,225.631,gibberellic acid,C=C1CC23CC1(O)CCC2C12C=CC(O)C(C)(C(=O)O1)C2C3C(=O)O
1091,-2.4,1.66,174.21900000000005,khellin,COc1c2occc2c(OC)c2c(=O)cc(C)oc12
1092,-2.93,2.54,173.563,gentisin,COc1cc(O)c2c(=O)c3cc(O)ccc3oc2c1
1096,-2.84,5.1,219.931,coumatetralyl,O=c1oc2ccccc2c(O)c1C1CCCc2ccccc21
1097,-3.66,5.07,270.824,ethyl biscoumacetate,CCOC(=O)C(c1c(O)c2ccccc2oc1=O)c1c(O)c2ccccc2oc1=O
1098,-3.89,3.42,227.301,warfarin,CC(=O)CC(c1ccccc1)c1c(O)c2ccccc2oc1=O
1101,-3.85,0.46,246.948,aldosterone,CC12CCC(=O)C=C1CCC1C2C2CC3(C(O)O2)C(C(=O)CO)CCC13
1102,-4.42,4.65,276.006,rotenone,C=C(C)C1Cc2c(ccc3c2OC2COc4cc(OC)c(OC)cc4C2C3=O)O1
1105,-2.94,1.19,174.875,gentisin,COC1=CC2OC3C=CC(O)=CC3C(=O)C2C(O)=C1
1106,-7.32,5.96,313.894,diosgenin,CC1COC2CC3(C)C(CC4C5C=C6CC(O)CCC6(C)CC5CCC43C)OC2C1
1107,-7.32,5.84,313.894,diosgenin,CC1CCC2(OC1)OC1CC3C4CC=C5CC(O)CCC5(C)C4CCC3(C)C1C2C
1108,-2.9,2.63,235.41,phenolphthalein,O=C1OC(c2ccc(O)cc2)(c2ccc(O)cc2)c2ccccc21
1110,-0.41,-2.5,278.531,raffinose,OCC1OC(OCC2OC(OC3(CO)OC(CO)C(O)C3O)C(O)C(O)C2O)C(O)C(O)C1O
1111,0.79,-3.48,188.874,sucrose,OCC1OC(OC2(CO)OC(CO)C(O)C2O)C(O)C(O)C1O
1117,-2.7,0.68,196.056,hematein,O=C1C=C2CC3(O)COc4c(ccc(O)c4O)C3=C2C=C1O
1126,-3.62,2.59,190.354,eriodictyol,O=C1CC(c2ccc(O)c(O)c2)Oc2cc(O)cc(O)c21
1128,-6.01,4.07,297.308,lovastatin,CCC(C)C(=O)OC1CC(C)C=C2C=CC(C)C(CCC3CC(O)CC(=O)O3)C21
1129,-4.08,0.85,518.764,"digoxin (L1=41,8mg/mL, L2=68,2mg/mL, Z=40,1mg/mL)",CC1OC(OC2C(O)CC(OC3C(O)CC(OC4CCC5(C)C(CCC6C5CC(O)C5(C)C(C7=CC(=O)OC7)CCC65O)C4)OC3C)OC2C)CC(O)C1O
1132,-0.74,0.25,268.1,monotropitoside,COC(=O)c1ccccc1OC1OC(COC2OCC(O)C(O)C2O)C(O)C(O)C1O
1133,-0.85,-1.85,182.162,salicin,OCc1ccccc1OC1OC(CO)C(O)C(O)C1O
1134,-0.24,-3.41,188.874,lactose,OCC1OC(OC2C(CO)OC(O)C(O)C2O)C(O)C(O)C1O
1137,-3.57,0.3,368.151,"etoposide (148-167,25mg/ml)",COc1cc(C2c3cc4c(cc3C(OC3OC5COC(C)OC5C(O)C3O)C3COC(=O)C23)OCO4)cc(OC)c1O
1138,-3.08,1.61,194.005,morin,O=c1c(O)c(-c2ccc(O)cc2O)oc2cc(O)cc(O)c12
1142,-3.48,1.19,216.429,adrenosterone,CC12CC(=O)C3C(CCC4=CC(=O)CCC43C)C1CCC2=O
1143,-3.69,2.9,215.841,androstenedione,CC12CCC3C(CCC4=CC(=O)CCC43C)C1CCC2=O
1144,-5.28,4.91,257.6,methyltestosterone acetate,CC(=O)OC1(C)CCC2C3CCC4=CC(=O)CCC4(C)C3CCC21C
1145,-5.35,3.82,282.5,megestrol acetate,CC(=O)OC1(C(C)=O)CCC2C3C=C(C)C4=CC(=O)CCC4(C)C3CCC21C
1146,-6.7,5.8,215.909,androstane-17-one,CC12CCC3C(CCC4CCCCC43C)C1CCC2=O
1147,-4.79,3.99,252.936,norethisterone acetate,C#CC1(OC(C)=O)CCC2C3CCC4=CC(=O)CCC4C3CCC21C
1150,-5.27,4.75,265.121,medrogestone,CC(=O)C1(C)CCC2C3C=C(C)C4=CC(=O)CCC4(C)C3CCC21C
1151,-4.43,4.04,240.80900000000003,progesterone,CC(=O)C1CCC2C3CCC4=CC(=O)CCC4(C)C3CCC12C
1165,-5.37,4.9,257.6,testosterone propionate,CCC(=O)OC1CCC2C3CCC4=CC(=O)CCC4(C)C3CCC12C
1166,-5.18,4.37,245.116,testosterone acetate,CC(=O)OC1CCC2C3CCC4=CC(=O)CCC4(C)C3CCC12C
1167,-4.46,4.28,245.116,"5,6-dehydroisoandrosterone acetate",CC(=O)OC1CCC2(C)C(=CCC3C4CCC(=O)C4(C)CCC32)C1
1179,-5.19,5.62,250.33900000000003,methoprene,COC(C)(C)CCCC(C)CC=CC(C)=CC(=O)OC(C)C
1197,-5.24,7.47,276.649,phenothrin,CC(C)=CC1C(C(=O)OCc2cccc(Oc3ccccc3)c2)C1(C)C
1198,-8.6,7.35,304.024,etofenprox,CCOc1ccc(C(C)(C)COCc2cccc(Oc3ccccc3)c2)cc1
1199,-5.11,9.08,305.909,dioctyl phthalate,CCCCCCCCOC(=O)c1ccccc1C(=O)OCCCCCCCC
1200,-6.14,6.95,255.973,dihexyl phthalate,CCCCCCOC(=O)c1ccccc1C(=O)OCCCCCC
1202,-6.64,8.71,305.909,diisooctyl phthalate,CC(C)CCCCCOC(=O)c1ccccc1C(=O)OCCCCCC(C)C
1208,-5.64,5.0,234.739,benzyl butyl phthalate,CCCCOC(=O)c1ccccc1C(=O)OCc1ccccc1
1209,-4.4,4.83,206.037,dibutyl phthalate,CCCCOC(=O)c1ccccc1C(=O)OCCCC
1212,-3.9,5.97,239.755,dibutyl sebacate,CCCCOC(=O)CCCCCCCCC(=O)OCCCC
1249,-6.96,8.71,305.909,di-(2-ethylhexyl)-phthalate,CCCCC(CC)COC(=O)c1ccccc1C(=O)OCC(CC)CCCC
1252,-4.66,4.46,206.037,diisobutyl phthalate,CC(C)COC(=O)c1ccccc1C(=O)OCC(C)C
1255,-4.63,4.53,270.672,deoxycorticosterone acetate,CC(=O)OCC(=O)C1CCC2C3CCC4=CC(=O)CCC4(C)C3CCC12C
1312,-4.0,2.53,275.567,hydrocortisone acetate,CC(=O)OCC(=O)C1(O)CCC2C3CCC4=CC(=O)CCC4(C)C3C(=O)CC21C
1313,-3.11,1.44,250.011,cortisone,CC12CCC(=O)C=C1CCC1C2C(=O)CC2(C)C1CCC2(O)C(=O)CO
1314,-5.66,3.86,239.864,ethisterone,C#CC1(O)CCC2C3CCC4=CC(=O)CCC4(C)C3CCC21C
1315,-3.99,4.02,232.044,17-methyltestosterone,CC12CCC(=O)C=C1CCC1C2CCC2(C)C1CCC2(C)O
1316,-4.71,2.89,245.116,17-a-hydroxyprogesterone,CC(=O)C1(O)CCC2C3CCC4=CC(=O)CCC4(C)C3CCC21C
1317,-5.51,4.27,329.222,hydrocortisone tebutate,CC(C)(C)CC(=O)OCC(=O)C1(O)CCC2C3CCC4=CC(=O)CCC4(C)C3C(O)CC21C
1318,-4.3,2.51,279.286,hydrocortisone 21-acetate,CC(=O)OCC(=O)C1(O)CCC2C3CCC4=CC(=O)CCC4(C)C3C(O)CC21C
1319,-2.97,1.43,253.73,hydrocortisone,CC12CCC(=O)C=C1CCC1C2C(O)CC2(C)C1CCC2(O)C(=O)CO
1320,-4.57,3.38,227.38,norethisterone,C#CC1(O)CCC2C3CCC4=CC(=O)CCC4C3CCC21C
1321,-4.3,4.52,229.787,ethinyl estradiol,C#CC1(O)CCC2C3CCc4cc(O)ccc4C3CCC21C
1322,-4.58,3.81,316.082,prednisolone-21-trimethylacetate,CC(C)(C)C(=O)OCC(=O)C1(O)CCC2C3CCC4=CC(=O)C=CC4(C)C3C(O)CC21C
1323,-4.37,2.58,278.63,prednisolone acetate,CC(=O)OCC(=O)C1(O)CCC2C3CCC4=CC(=O)C=CC4(C)C3C(O)CC21C
1324,-3.21,1.49,253.074,prednisolone,CC12C=CC(=O)C=C1CCC1C2C(O)CC2(C)C1CCC2(O)C(=O)CO
1325,-2.99,1.99,265.558,6-methylprednisolone,CC1CC2C(C(O)CC3(C)C2CCC3(O)C(=O)CO)C2(C)C=CC(=O)C=C12
1326,-4.57,2.06,231.687,norethisterone,C#CC1(O)CCC2C3CCC4=CC(=O)CCC4(O)C3CCC21C
1342,-5.24,3.76,204.452,equilenin,CC12CCc3c(ccc4cc(O)ccc34)C1CCC2=O
1343,-5.28,3.53,205.108,equilin,CC12CCC3C(=CCc4cc(O)ccc43)C1CCC2=O
1344,-3.96,3.69,205.764,estrone,CC12CCC3c4ccc(O)cc4CCC3C1CCC2=O
1355,-4.95,3.97,219.767,dienestrol,C=CC(c1ccc(O)cc1)C(C=C)c1ccc(O)cc1
1356,-4.43,4.98,221.079,hexestrol,CCC(c1ccc(O)cc1)C(CC)c1ccc(O)cc1
1359,-4.07,5.93,220.423,DES,CCC(=C(CC)c1ccc(O)cc1)c1ccc(O)cc1
1360,-4.95,5.41,219.767,dienestrol,CC=C(C(=CC)c1ccc(O)cc1)c1ccc(O)cc1
1365,-4.02,3.48,219.56,testosterone,CC12CCC(=O)C=C1CCC1C2CCC2(C)C(O)CCC12
1366,-4.74,3.75,220.216,stanolone,CC12CCC3C(CCC4CC(=O)CCC43C)C1CCC2O
1367,-3.37,2.61,295.557,cholic acid,CC(CCC(=O)O)C1CCC2C3C(O)CC4CC(O)CCC4(C)C3CC(O)C12C
1368,-3.95,4.66,291.25,deoxycholic acid,CC(CCC(=O)O)C1CCC2C3CCC4CC(O)CCC4(C)C3CC(O)C12C
1369,-4.35,2.96,295.557,hyocholic acid,CC(CCC(=O)O)C1CCC2C3CC(O)C4CC(O)CCC4(C)C3CC(O)C12C
1370,-4.84,4.13,209.483,alpha-estradiol,CC12CCC3c4ccc(O)cc4CCC3C1CCC2O
1371,-4.95,2.94,213.79,estriol,CC12CCC3c4ccc(O)cc4CCC3C1CC(O)C2O
1372,-3.59,2.08,224.523,hydroxyisoandrosterone,CC12CC(O)C3C(CCC4CC(O)CCC43C)C1CCC2=O
1373,-3.82,5.0,291.25,Hyodesoxycholic acid,CC(CCC(=O)O)C1CCC2C3CC(O)C4CC(O)CCC4(C)C3CCC12C
1374,-4.35,3.82,295.557,hyocholic acid,CC(CCC(=O)O)C1CCC2C3C(O)C(O)C4CC(O)CCC4(C)C3CCC12C
1375,-3.64,4.66,291.25,hyodeoxycholic acid,CC(CCC(=O)O)C1CCC2C3C(O)CC4CC(O)CCC4(C)C3CCC12C
1376,-3.24,1.76,249.423,corticosterone,CC12CCC(=O)C=C1CCC1C2C(O)CC2(C)C(C(=O)CO)CCC12
1377,-3.85,0.73,250.011,aldosterone,CC12CCC(=O)C=C1CCC1C2C(O)CC2(C=O)C(C(=O)CO)CCC12
1378,-4.16,3.75,220.216,androsterone,CC12CCC3C(CCC4CC(O)CCC43C)C1CCC2=O
1379,-4.12,3.42,219.56,prasterone,CC12CCC3C(CC=C4CC(O)CCC43C)C1CCC2=O
1380,-4.65,4.52,244.528,pregnenolone,CC(=O)C1CCC2C3CC=C4CC(O)CCC4(C)C3CCC12C
1386,-2.47,1.88,260.936,prostaglandin E2,CCCCCC(O)C=CC1C(O)CC(=O)C1CC=CCCCC(=O)O
1416,-8.4,8.31,234.272,1-octadecanol,CCCCCCCCCCCCCCCCCCO
1443,-3.75,3.41,245.116,deoxycorticosterone,CC12CCC(=O)C=C1CCC1C2CCC2(C)C(C(=O)CO)CCC12
1477,-3.8,6.54,238.17,abietic acid,CC(C)C1=CC2=CCC3C(C)(C(=O)O)CCCC3(C)C2CC1
1492,-5.68,8.22,234.86,stearic acid,CCCCCCCCCCCCCCCCCC(=O)O
1493,-6.81,7.15,209.892,palmitic acid,CCCCCCCCCCCCCCCC(=O)O
1507,-5.06,3.13,192.98,fenbufen,O=C(O)CCC(=O)c1ccc(-c2ccccc2)cc1
1513,-3.7,2.81,192.98,ketoprofen,CC(C(=O)O)c1cccc(C(=O)c2ccccc2)c1
1519,-6.7,3.15,285.88,tricresyl phosphate,Cc1cc(O)ccc1OP(=O)(Oc1cc(O)ccc1C)Oc1c(C)cccc1O
1520,-6.01,5.48,272.959,tricresyl phosphate,Cc1ccc(OP(=O)(Oc2cccc(C)c2)Oc2ccccc2C)cc1
1524,-3.94,2.86,205.218,metiazinic acid,CN1c2ccccc2Sc2ccc(CC(=O)O)cc21
1525,-3.98,2.98,283.09,pericyazine,N#Cc1ccc2c(c1)N(CCCN1CCC(O)CC1)c1ccccc1S2
1526,-4.22,4.51,264.29200000000003,methotrimeprazine,COc1ccc2c(c1)N(CC(C)CN(C)C)c1ccccc1S2
1527,-4.74,4.3,253.203,mepazine,CN1CCCC(CN2c3ccccc3Sc3ccccc32)C1
1528,-4.3,4.09,235.017,promazine,CN(C)CCCN1c2ccccc2Sc2ccccc21
1529,-4.26,3.77,235.017,promethazine,CC(CN1c2ccccc2Sc2ccccc21)N(C)C
1530,-5.41,4.74,235.212,epitiostanol,CC12CCC3C(CCC4CC5SC5CC43C)C1CCC2O
1532,-3.71,3.38,302.988,sufentanil,CCC(=O)N(c1ccccc1)C1(COC)CCN(CCc2cccs2)CC1
1534,-2.64,2.51,211.666,methapyrilene,CN(C)CCN(Cc1cccs1)c1ccccn1
1536,-2.43,1.14,177.834,oxycarboxin,CC1=C(C(=O)Nc2ccccc2)S(=O)(=O)CCO1
1544,-4.87,3.85,223.709,mefenacet,CN(C(=O)COc1nc2ccccc2s1)c1ccccc1
1547,-1.88,1.46,175.25599999999997,buthidazole,CN1CC(O)N(c2nnc(C(C)(C)C)s2)C1=O
1549,-4.16,1.71,222.925,piroxicam,CN1C(C(=O)Nc2ccccn2)=C(O)c2ccccc2S1(=O)=O
1551,-6.24,5.96,309.565,abate,COP(=S)(OC)Oc1ccc(Sc2ccc(OP(=S)(OC)OC)cc2)cc1
1552,-4.28,3.12,298.74,spironolactone,CC(=O)SC1CC2=CC(=O)CCC2(C)C2CCC3(C)C(CCC34CCC(=O)O4)C12
1553,-4.71,2.33,212.993,RTI 17,CCN1c2ccccc2N(C)C(=S)c2cccnc21
1554,-4.63,1.76,207.172,RTI 16,CCN1c2ncccc2C(=S)N(C)c2cccnc21
1558,-3.46,3.14,186.898,thiamylal,C=CCC1(C(C)CCC)C(=O)NC(=S)NC1=O
1564,-3.93,3.28,195.782,fenothiocarb,CN(C)C(=O)SCCCCOc1ccccc1
1568,-1.35,0.26,186.825,cimetidine,CNC(=NC#N)NCCSCc1nc[nH]c1C
1574,-4.57,3.21,193.56,fenthion,COP(=S)(OC)Oc1ccc(SC)c(C)c1
1581,-2.93,2.37,199.941,methoproptryne,COCCCNc1nc(NC(C)C)nc(SC)n1
1604,-4.71,4.54,295.316,benfuracarb,CCOC(=O)CCN(SN(C)C(=O)Oc1cccc2c1OC(C)(C)C2)C(C)C
1605,-5.59,5.44,236.43400000000003,cyhexatin,[CH]1CCCCC1.[CH]1CCCCC1.[CH]1CCCCC1.[OH]
1606,-1.98,-1.92,237.099,"sparsomycin (3,8mg/ml)",CSCS(=O)CC(CO)NC(=O)C=Cc1c(C)[nH]c(=O)[nH]c1=O
1607,-2.3,2.23,203.711,fensulfothion,CCOP(=S)(OCC)Oc1ccc(S(C)=O)cc1
1608,-3.59,-0.13,201.74400000000003,acetyl sulfisoxazole,CC(=O)N(c1onc(C)c1C)S(=O)c1ccc(N)cc1
1611,-3.59,0.23,206.051,acetyl sulfisoxazole,CC(=O)N(c1onc(C)c1C)S(=O)(=O)c1ccc(N)cc1
1612,-4.16,2.7,220.22,bupirimate,CCCCc1c(C)nc(NCC)nc1OS(=O)(=O)N(C)C
1618,-3.81,2.05,168.82299999999995,ethoxyzolamide,CCOc1ccc2nc(S(N)(=O)=O)sc2c1
1621,-2.85,0.34,182.195,sulfamerazine,Cc1ccnc(NS(=O)(=O)c2ccc(N)cc2)n1
1622,-2.27,0.8,194.679,sulfamethazine,Cc1cc(C)nc(NS(=O)(=O)c2ccc(N)cc2)n1
1623,-2.44,1.08,180.495,sulfamoxole,Cc1nc(NS(=O)(=O)c2ccc(N)cc2)oc1C
1624,-2.82,0.34,182.195,sulfaperine,Cc1cnc(NS(=O)(=O)c2ccc(N)cc2)nc1
1625,-2.58,0.42,186.502,sulfameter,COc1cnc(NS(=O)(=O)c2ccc(N)cc2)nc1
1627,-3.51,-0.12,169.71099999999996,sulfadiazine,Nc1ccc(S(=O)(=O)Nc2ncccn2)cc1
1628,-3.7,-0.0221,169.71099999999996,sulfapyrazine,Nc1ccc(S(=O)(=O)Nc2cnccn2)cc1
1629,-2.24,-0.43,194.679,sulfisomidine,Cc1cc(NS(=O)(=O)c2ccc(N)cc2)nc(C)n1
1630,-2.54,0.54,198.986,sulfamethomidine,COc1cc(NS(=O)(=O)c2ccc(N)cc2)nc(C)n1
1631,-2.96,1.48,203.293,sulfadimethoxine,COc1cc(NS(=O)(=O)c2ccc(N)cc2)nc(OC)n1
1632,-3.28,0.32,186.502,sulfamethoxypyridazine,COc1ccc(NS(=O)(=O)c2ccc(N)cc2)nn1
1633,-2.32,1.52,227.1,sulfaphenazole,Nc1ccc(S(=O)(=O)Nc2ccnn2-c2ccccc2)cc1
1634,-2.62,0.89,168.011,sulfamethoxazole,Cc1cc(NS(=O)(=O)c2ccc(N)cc2)no1
1635,-2.91,1.01,180.495,sulfisoxazole,Cc1noc(NS(=O)(=O)c2ccc(N)cc2)c1C
1636,-2.43,0.0467,173.58599999999996,sulfathiozole,Nc1ccc(S(=O)(=O)Nc2nccs2)cc1
1637,-3.74,1.74,217.701,glybuthiazole,CC(C)(C)c1nnc(NS(=O)(=O)c2ccc(N)cc2)s1
1638,-1.94,1.04,192.733,sulfaethidole,CCc1nnc(NS(=O)(=O)c2ccc(N)cc2)s1
1639,-2.41,0.51,180.249,sulfamethiazole,Cc1nnc(NS(=O)(=O)c2ccc(N)cc2)s1
1640,-4.2,4.22,273.255,bensulide,CC(C)OP(=S)(OC(C)C)SCCNS(=O)(=O)c1ccccc1
1643,-4.21,2.81,208.877,tolcyclamide,Cc1ccc(S(=O)(=O)NC(=O)NC2CCCCC2)cc1
1644,-2.06,2.44,221.949,acetohexamide,CC(=O)c1ccc(S(=O)(=O)NC(=O)NC2CCCCC2)cc1
1645,-3.39,2.34,190.691,tolbutamide,CCCCNC(=O)NS(=O)(=O)c1ccc(C)cc1
1646,-2.18,1.01,187.933,carbutamide,CCCCNC(=O)NS(=O)(=O)c1ccc(N)cc1
1647,-3.05,1.88,178.207,phenbutamide,CCCCNC(=O)NS(=O)(=O)c1ccccc1
1648,-3.68,1.71,218.603,tolazamide,Cc1ccc(S(=O)(=O)NC(=O)NN2CCCCCC2)cc1
1650,-3.42,2.0,189.274,ethofumesate,CCOC1Oc2ccc(OS(C)(=O)=O)cc2C1(C)C
1652,-3.35,3.48,195.975,ditalimfos,CCOP(=S)(OCC)N1C(=O)c2ccccc2C1=O
1653,-3.41,1.61,189.602,propetamphos,CCNP(=S)(OC)OC(C)=CC(=O)OC(C)C
1654,-4.19,4.12,243.928,isofenphos,CCOP(=S)(NC(C)C)Oc1ccccc1C(=O)OC(C)C