,Expt,ClogP,Polarizability,Name,smiles
1655,-3.64,3.81,209.488,diazinon,CCOP(=S)(OCC)Oc1cc(C)nc(C(C)C)n1
1657,-4.86,4.39,202.781,phoxim,CCOP(=S)(OCC)ON=C(C#N)c1ccccc1
1658,1.14,0.15,187.656,vamidothion,CNC(=O)C(C)SCCSP(=O)(OC)OC
1659,-5.14,3.23,241.03,DEF,CCCCSP(=O)(SCCCC)SCCCC
1660,-4.15,4.3,251.471,piperophos,CCCOP(=S)(OCCC)SCC(=O)N1CCCCC1C
1661,-4.23,3.31,195.401,disulfoton,CCOP(=S)(OCC)SCCSCC
1662,-2.52,2.31,213.212,mecarbam,CCOC(=O)N(C)C(=O)CSP(=S)(OCC)OCC
1663,-4.76,4.37,207.885,terbufos,CCOP(=S)(OCC)SCSC(C)(C)C
1664,-4.11,3.67,182.917,phorate,CCOP(=S)(OCC)SCSCC
1665,-5.54,5.07,253.429,ethion,CCOP(=S)(OCC)SCSP(=S)(OCC)OCC
1667,-2.0,1.43,158.969,formothion,COP(=S)(OC)SCC(=O)N(C)C=O
1668,-4.1,2.84,205.857,prometryn,COP(=S)(OC)SCN1C(=O)c2ccccc2C1=O
1669,-3.37,2.93,207.793,malathion,CCOC(=O)CC(SP(=S)(OC)OC)C(=O)OCC
1672,-4.86,3.88,231.571,disulfiram,CCN(CC)C(=S)SSC(=S)N(CC)CC
1674,-3.76,5.14,216.497,Androstanedione  ,CC12CCCC1C1CCC3CC(=O)C(=O)CC3(C)C1CC2
1675,-3.77,4.42,342.08,Betamethasone  ,CCC(=O)OCC(=O)C1(OC(=O)CC)C(C)CC2C3CCC4=CC(=O)C=CC4(C)C3(F)C(O)CC21C
1680,-7.0,9.85,318.844,Cholesterol  ,CC(C)CCCC(C)C1CCC2C3CC=C4CC(O)CCC4(C)C3CCC12C
1681,-12.95,8.6,273.528,Decachlorodiphenyl ether  ,Clc1c(Cl)c(Cl)c(Oc2c(Cl)c(Cl)c(Cl)c(Cl)c2Cl)c(Cl)c1Cl
1682,-7.74,5.78,179.025,"4,4'-Dibromobiphenyl  ",Brc1ccc(-c2ccc(Br)cc2)cc1
1687,-7.83,5.82,165.725,"2,7-Dichlorodibenzo-p-dioxin  ",Clc1ccc2c(c1)Oc1ccc(Cl)cc1O2
1688,-7.18,5.82,165.725,"2,8-Dichlorodibenzo-p-dioxin  ",Clc1ccc2c(c1)Oc1cc(Cl)ccc1O2
1694,-5.37,4.11,141.637,"1,4-Diiodobenzene  ",Ic1ccc(I)cc1
1702,-8.94,7.12,229.723,"2,2',3,4',5,5',6-Heptachlorobiphenyl  ",Clc1cc(Cl)c(-c2c(Cl)c(Cl)cc(Cl)c2Cl)cc1Cl
1703,-11.48,7.26,227.248,"1,2,3,4,6,7,8-Heptachlorodibenzofuran  ",Clc1cc2c(oc3c(Cl)c(Cl)c(Cl)c(Cl)c32)c(Cl)c1Cl
1704,-11.25,8.1,231.555,"1,2,3,4,6,7,8-Heptachlorodibenzo-p-dioxin  ",Clc1cc2c(c(Cl)c1Cl)Oc1c(Cl)c(Cl)c(Cl)c(Cl)c1O2
1705,-9.46,7.59,234.03,"2,3,3',4,4',5,6-Heptachlorodiphenyl ether  ",Clc1ccc(Oc2c(Cl)c(Cl)c(Cl)c(Cl)c2Cl)cc1Cl
1706,-9.12,7.65,234.03,"2,2',3,3',4,4',5-Heptachlorodiphenyl ether  ",Clc1ccc(Oc2cc(Cl)c(Cl)c(Cl)c2Cl)c(Cl)c1Cl
1707,-9.5,7.71,234.03,"2,2',3,4,4',5,5'-Heptachlorodiphenyl ether  ",Clc1cc(Cl)c(Oc2cc(Cl)c(Cl)c(Cl)c2Cl)cc1Cl
1708,-9.09,7.49,234.03,"2,2',3,3',4',5,6-Heptachlorodiphenyl ether  ",Clc1ccc(Oc2c(Cl)c(Cl)cc(Cl)c2Cl)c(Cl)c1Cl
1709,-9.05,7.54,234.03,"2,2',3,4',5,5',6-Heptachlorodiphenyl ether  ",Clc1cc(Cl)c(Oc2c(Cl)c(Cl)cc(Cl)c2Cl)cc1Cl
1710,-7.56,4.89,150.403,Hexachlorobenzene  ,Clc1c(Cl)c(Cl)c(Cl)c(Cl)c1Cl
1711,-8.56,6.83,216.557,"2,2',4,4',5,5'-Hexachlorobiphenyl  ",Clc1cc(Cl)c(Cl)c(-c2cc(Cl)cc(Cl)c2Cl)c1
1712,-10.33,6.94,214.082,"1,2,3,6,7,8-Hexachlorodibenzofuran  ",Clc1cc2c(oc3cc(Cl)c(Cl)c(Cl)c32)c(Cl)c1Cl
1713,-10.66,7.01,214.082,"1,2,3,4,7,8-Hexachlorodibenzofuran  ",Clc1cc2oc3c(Cl)c(Cl)c(Cl)c(Cl)c3c2cc1Cl
1714,-9.95,7.71,218.389,"1,2,3,4,7,8-Hexachlorodibenzo-p-dioxin  ",Clc1cc2c(cc1Cl)Oc1c(Cl)c(Cl)c(Cl)c(Cl)c1O2
1715,-8.14,7.12,220.864,"2,2',3,3',4,4'-Hexachlorodiphenyl ether  ",Clc1ccc(Oc2ccc(Cl)c(Cl)c2Cl)c(Cl)c1Cl
1716,-8.1,7.06,220.864,"2,2',3,4,4',6'-Hexachlorodiphenyl ether  ",Clc1cc(Cl)c(Oc2ccc(Cl)c(Cl)c2Cl)c(Cl)c1
1717,-8.31,7.17,220.864,"2,2',3,4,4',5'-Hexachlorodiphenyl ether  ",Clc1cc(Cl)c(Oc2ccc(Cl)c(Cl)c2Cl)cc1Cl
1718,-8.36,7.23,220.864,"2,2',4,4',5,5'-Hexachlorodiphenyl ether  ",Clc1cc(Cl)c(Oc2cc(Cl)c(Cl)cc2Cl)cc1Cl
1719,-8.04,7.11,220.864,"2,2',4,4',5,6'-Hexachlorodiphenyl ether  ",Clc1cc(Cl)c(Oc2cc(Cl)c(Cl)cc2Cl)c(Cl)c1
1720,-8.72,7.51,220.864,"2,3',4,4',5,5'-Hexachlorodiphenyl ether  ",Clc1cc(Cl)c(Oc2cc(Cl)c(Cl)c(Cl)c2)cc1Cl
1721,-8.78,7.39,220.864,"2,3,3',4,4',5-Hexachlorodiphenyl ether  ",Clc1ccc(Oc2cc(Cl)c(Cl)c(Cl)c2Cl)cc1Cl
1722,-8.94,7.0,220.864,"2,3,4,4',5,6-Hexachlorodiphenyl ether  ",Clc1ccc(Oc2c(Cl)c(Cl)c(Cl)c(Cl)c2Cl)cc1
1723,-3.82,2.55,245.116,11-a-Hydroxyprogesterone  ,CC(=O)C1CCC2C3CCC4=CC(=O)CC(O)C4(C)C3CCC12C
1726,-11.59,7.22,240.414,Octachlorodibenzofuran  ,Clc1c(Cl)c(Cl)c2c(oc3c(Cl)c(Cl)c(Cl)c(Cl)c32)c1Cl
1727,-12.79,8.41,244.721,Octachlorodibenzo-p-dioxin  ,Clc1c(Cl)c(Cl)c2c(c1Cl)Oc1c(Cl)c(Cl)c(Cl)c(Cl)c1O2
1728,-10.14,7.91,247.196,"2,2',3,4,4',5,5',6-Octachlorodiphenyl ether  ",Clc1cc(Cl)c(Oc2c(Cl)c(Cl)c(Cl)c(Cl)c2Cl)cc1Cl
1729,-10.13,8.18,247.196,"2,2',3,3',4,4',5,5'-Octachlorodiphenyl ether  ",Clc1cc(Oc2cc(Cl)c(Cl)c(Cl)c2Cl)c(Cl)c(Cl)c1Cl
1730,-10.1,8.02,247.196,"2,2',3,3',4,5,5',6'-Octachlorodiphenyl ether  ",Clc1cc(Oc2c(Cl)c(Cl)cc(Cl)c2Cl)c(Cl)c(Cl)c1Cl
1732,-9.16,6.8,200.916,"2,3,4,7,8-Pentachlorodibenzofuran  ",Clc1cc2oc3c(Cl)c(Cl)c(Cl)cc3c2cc1Cl
1733,-9.48,7.11,205.223,"1,2,3,4,7-Pentachlorodibenzo-p-dioxin  ",Clc1ccc2c(c1)Oc1c(Cl)c(Cl)c(Cl)c(Cl)c1O2
1734,-7.44,6.66,207.698,"2,2',3,4,4'-Pentachlorodiphenyl ether  ",Clc1ccc(Oc2ccc(Cl)c(Cl)c2Cl)c(Cl)c1
1735,-7.67,6.86,207.698,"2,3,3',4,4'-Pentachlorodiphenyl ether  ",Clc1ccc(Oc2ccc(Cl)c(Cl)c2Cl)cc1Cl
1741,-8.06,6.52,220.489,"2,2',5,5'-Tetrabromobiphenyl  ",Brc1ccc(Br)c(-c2cc(Br)ccc2Br)c1
1742,-2.72,4.12,113.149,"1,1,2,2-Tetrabromoethane  ",BrC(Br)C(Br)Br
1745,-7.99,7.07,215.193,"2,2',4,6'-Tetrachlorobenzyl 3-toluene  ",Cc1c(Cl)ccc(Cc2c(Cl)cccc2Cl)c1Cl
1746,-7.4,7.07,215.193,"2,2',4,4'-Tetrachlorobenzyl 3-toluene  ",Cc1c(Cl)ccc(Cc2ccc(Cl)cc2Cl)c1Cl
1747,-8.03,6.9,215.193,"2,2',5,5'-Tetrachlorobenzyl 4-toluene  ",Cc1cc(Cl)c(Cc2cc(Cl)ccc2Cl)cc1Cl
1748,-8.36,7.07,215.193,"2,2',4,6'-Tetrachlorobenzyl 5-toluene  ",Cc1cc(Cc2c(Cl)cccc2Cl)c(Cl)cc1Cl
1749,-7.49,7.07,215.193,"2,2',4,4'-Tetrachlorobenzyl 5-toluene  ",Cc1cc(Cc2ccc(Cl)cc2Cl)c(Cl)cc1Cl
1750,-8.18,6.81,215.193,"2,3,4,4'-Tetrachlorobenzyl 5-toluene  ",Cc1cc(Cc2ccc(Cl)cc2)c(Cl)c(Cl)c1Cl
1751,-7.24,6.81,215.193,"2,3,4,6'-Tetrachlorobenzyl 6-toluene  ",Cc1cc(Cl)c(Cl)c(Cl)c1Cc1ccccc1Cl
1752,-7.44,6.81,215.193,"2,3,4,4'-Tetrachlorobenzyl 6-toluene  ",Cc1cc(Cl)c(Cl)c(Cl)c1Cc1ccc(Cl)cc1
1753,-6.57,5.88,190.225,"2,2',4,5-Tetrachlorobiphenyl  ",Clc1cc(Cl)c(-c2ccccc2Cl)cc1Cl
1754,-8.53,6.0,190.225,"3,3',4,4'-Tetrachlorobiphenyl  ",Clc1ccc(-c2ccc(Cl)c(Cl)c2)cc1Cl
1755,-6.94,6.11,190.225,"2,4,4',6-Tetrachlorobiphenyl  ",Clc1ccc(-c2c(Cl)cc(Cl)cc2Cl)cc1
1756,-8.54,6.26,190.225,"3,3',5,5'-Tetrachlorobiphenyl  ",Clc1cc(Cl)cc(-c2cc(Cl)cc(Cl)c2)c1
1757,-8.86,6.45,187.75,"2,3,7,8-Tetrachlorodibenzofuran  ",Clc1cc2oc3cc(Cl)c(Cl)cc3c2cc1Cl
1758,-8.77,6.4,192.057,"1,2,3,4-Tetrachlorodibenzo-p-dioxin  ",Clc1c(Cl)c(Cl)c2c(c1Cl)Oc1ccccc1O2
1759,-8.89,6.8,192.057,"1,2,3,7-Tetrachlorodibenzo-p-dioxin  ",Clc1ccc2c(c1)Oc1cc(Cl)c(Cl)c(Cl)c1O2
1760,-9.0,6.84,192.057,"1,3,6,8-Tetrachlorodibenzo-p-dioxin  ",Clc1cc(Cl)c2c(c1)Oc1c(Cl)cc(Cl)cc1O2
1761,-10.22,7.01,192.057,"2,3,7,8-Tetrachlorodibenzo-p-dioxin  ",Clc1cc2c(cc1Cl)Oc1cc(Cl)c(Cl)cc1O2
1762,-6.82,6.19,194.532,"2,2',4,4'-Tetrachlorodiphenyl ether  ",Clc1ccc(Oc2ccc(Cl)cc2Cl)c(Cl)c1
1763,-6.98,6.59,194.532,"3,3',4,4'-Tetrachlorodiphenyl ether  ",Clc1ccc(Oc2ccc(Cl)c(Cl)c2)cc1Cl
1764,-5.24,4.92,157.653,"3,4,5,6-Tetrachloroveratrole  ",COc1c(Cl)c(Cl)c(Cl)c(Cl)c1OC
1765,-7.3,5.88,199.757,"2,4,6-Tribromobiphenyl  ",Brc1cc(Br)c(-c2ccccc2)c(Br)c1
1769,-7.06,5.56,177.05900000000003,"3,4,4'-Trichlorobiphenyl  ",Clc1ccc(-c2ccc(Cl)c(Cl)c2)cc1
1770,-7.58,5.91,178.891,"1,2,4-Trichlorodibenzo-p-dioxin  ",Clc1cc(Cl)c2c(c1Cl)Oc1ccccc1O2
1771,-6.58,5.72,181.366,"2,4,5-Trichlorodiphenyl ether  ",Clc1cc(Cl)c(Oc2ccccc2)cc1Cl
1772,-6.77,6.0,181.366,"3,4,5-Trichlorodiphenyl ether  ",Clc1cc(Oc2ccccc2)cc(Cl)c1Cl
1778,-10.55,8.39,260.362,"2,2',3,3',4,4',5,5',6'-Nonachlorodiphenyl ether  ",Clc1cc(Oc2c(Cl)c(Cl)c(Cl)c(Cl)c2Cl)c(Cl)c(Cl)c1Cl
1779,-8.06,6.99,215.193,"2,2',4,5'-Tetrachlorobenzyl-5 toluene  ",Cc1cc(Cc2cc(Cl)ccc2Cl)c(Cl)cc1Cl
1780,-6.22,5.8,181.366,"2,4,4'-trichlorodiphenyl ether  ",Clc1ccc(Oc2ccc(Cl)cc2Cl)cc1
1782,-6.0,4.52,213.774,Bifenox,COC(=O)c1cc(Oc2ccc(Cl)cc2Cl)ccc1[N+](=O)[O-]
1784,-4.4,4.92,199.255,o-dibutylphthalate,CCCCc1ccc(C(=O)[O-])c(C(=O)[O-])c1CCCC
1785,-3.82,4.24,227.338,Diclofop-methyl,COC(=O)C(C)Oc1ccc(Oc2ccc(Cl)cc2Cl)cc1
1788,-6.08,3.12,204.25,b-Endosulfan,O=S1OCC2C(CO1)C1(Cl)C(Cl)=C(Cl)C2(Cl)C1(Cl)Cl
1790,-5.22,3.65,187.1,Fluorodifen,O=[N+]([O-])c1ccc(Oc2ccc(C(F)(F)F)cc2[N+](=O)[O-])cc1
1791,-5.66,6.25,242.653,Leptophos,COP(=S)(Oc1cc(Cl)c(Br)cc1Cl)c1ccccc1
1792,-7.04,6.18,238.797,Perthane,CCc1ccc(C(c2ccc(CC)cc2)C(Cl)Cl)cc1
1793,-3.0743,2.37,119.244,2-amino-5-bromobenzoic acid,CCN(CC)Cc1cc(Nc2ccnc3cc(Cl)ccc23)ccc1O
1794,-2.6203,2.87,118.132,"5-bromo-2,4-dihydroxybenzoic acid",Cn1cnc([N+](=O)[O-])c1Sc1ncnc2nc[nH]c12
1796,-2.4352,-0.26,127.167,Acetazolamide,CN(C)Cc1c[nH]c2ccc(Br)cc12
1797,-2.6342,2.88,201.447,Alprenolol,CCCCN1CCCCC1C(=O)Nc1c(C)cccc1C
1798,-1.8536,2.22,119.473,Amantadine,CC(C(=O)O)c1ccc2c(c1)[nH]c1ccc(Cl)cc12
1799,-4.5496,4.92,239.721,amitriptyline,COc1ccccc1OCCNCC(O)COc1cccc2[nH]c3ccccc3c12
1800,-5.7905,3.77,272.927,Amodiaquine,CC(=O)OCC1=C(C(=O)O)N2C(=O)C(NC(=O)Cc3cccs3)C2SC1
1801,-2.0025,1.53,214.095,Atropine,CN(C)CCC(c1ccc(Cl)cc1)c1ccccn1
1803,-3.2241,3.64,234.473,Bupivacaine,CN(C)CCC=C1c2ccccc2Sc2ccc(Cl)cc21
1804,-4.2557,4.11,308.517,Carvedilol,CN=C(NC#N)NCCSCc1nc[nH]c1C
1805,-2.938,1.45,257.833,Cephalothin,O=C(O)c1cn(C2CC2)c2cc(N3CCNCC3)c(F)cc2c1=O
1806,-2.6667,3.39,217.052,chlorpheniramine,CN1CC2CC1CN2c1cc2c(cc1F)c(=O)c(C(=O)O)cn2C1CC1
1810,-1.6916,0.07,186.825,Cimetidine,O=C(O)Cc1ccccc1Nc1c(Cl)cccc1Cl
1811,-3.5965,1.31,222.832,Ciprofloxacin,CN1CCN(c2cc3c(cc2F)c(=O)c(C(=O)O)cn3-c2ccc(F)cc2)CC1
1812,-2.8996,1.86,241.018,Danofloxacin,COc1ccc(C2Sc3ccccc3N(CCN(C)C)C(=O)C2OC(C)=O)cc1
1813,-2.5125,2.95,163.857,Deprenyl,CN(C)CCOC(c1ccccc1)c1ccccc1
1814,-3.3621,1.07,142.832,Diazoxide,CCN1CCN(c2cc3c(cc2F)c(=O)c(C(=O)O)cn3C2CC2)CC1
1815,-5.4559,4.06,203.482,Diclofenac,NC(N)=Nc1nc(CSCCC(N)=NS(N)(=O)=O)cs1
1817,-2.9457,3.66,214.014,diphenhydramine,CC1CCc2cc(F)cc3c(=O)c(C(=O)O)cn1c23
1819,-2.6468,-0.4,223.68400000000003,Famotidine,Cc1cnc(C(=O)NCCc2ccc(S(=O)(=O)NC(=O)NC3CCCCC3)cc2)cn1
1821,-3.7326,2.42,172.71,Flumequine,NS(=O)(=O)c1cc2c(cc1C(F)(F)F)NCNS2(=O)=O
1822,-4.4274,-0.98,95.233,Guanine,CCn1cc(C(=O)O)c(=O)c2cc(F)c(N3CCNC(C)C3)c(F)c21
1823,-2.6731,1.59,162.05700000000004,Hexobarbital,CNCCCC12CCC(c3ccccc31)c1ccccc12
1824,-4.6914,4.51,233.595,Maprotiline,Clc1ccc(COC(Cn2ccnc2)c2ccc(Cl)cc2Cl)c(Cl)c1
1825,-3.5655,2.22,218.518,Metoclopramide,C=CCN1CCC23c4c5ccc(O)c4OC2C(=O)CCC3(O)C1C5
1826,-2.8978,1.45,229.15,Naloxone,CCn1cc(C(=O)O)c(=O)c2cc(F)c(N3CCNCC3)cc21
1827,-4.4961,3.0,172.387,Naproxen,CNCCC=C1c2ccccc2CCc2ccccc21
1828,-3.2385,-0.4,136.90200000000002,Nitrofurantoin,CC1COc2c(N3CCN(C)CC3)c(F)cc3c(=O)c(C(=O)O)cn1c23
1829,-4.0168,5.65,227.237,Nortriptiline,COc1ccc(Cc2nccc3cc(OC)c(OC)cc23)cc1OC
1834,-4.8019,1.71,222.925,Piroxicam,CC(C)NCC(O)COc1cccc2ccccc12
1835,-3.4938,3.1,206.493,propranolol,CNC(=C[N+](=O)[O-])NCCSCc1ccc(CN(C)C)o1
1836,-2.7865,3.44,248.872,Quinine,O=C(O)c1cn(-c2ccc(F)cc2)c2cc(N3CCNCC3)c(F)cc2c1=O
1837,-2.5009,1.23,230.357,Ranitidine,CC1CN(c2c(F)c(N)c3c(=O)c(C(=O)O)cn(C4CC4)c3c2F)CC(C)N1
1838,-1.5199,-0.96,140.755,Sulfacetamide,O=C(O)c1cc(N=Nc2ccc(S(=O)(=O)Nc3ccccn3)cc2)ccc1O
1840,-2.6892,0.05,173.58599999999996,Sulfathiazole,CC1=C(CC(=O)O)c2cc(F)ccc2C1=Cc1ccc(S(C)=O)cc1
1841,-3.6778,3.59,254.709,Sulindac,CCCCNc1ccc(C(=O)OCCN(C)C)cc1
1842,-3.0109,3.65,208.11,Tetracaine,CN(C)C1C(=O)C(=C(N)O)C(=O)C2(O)C(=O)C3=C(O)c4c(O)cccc4C(C)(O)C3CC12
1843,-2.1857,3.28,125.65,Thymol,Cc1ccc(C(=O)c2ccc(CC(=O)O)n2C)cc1
1844,-2.9511,0.79,208.228,Trimethoprim,CC(CN(C)C)CN1c2ccccc2CCc2ccccc21
1846,-3.2956,1.38,133.357,Tryptamine,COc1ccc(CCN(C)CCCC(C#N)(c2ccc(OC)c(OC)c2)C(C)C)cc1OC
1847,-2.43,1.54,223.502,None,NC(=O)c1cnc2n1CCc1ccccc1C21CCNCC1
1848,-4.396,4.1,237.246,None,Cc1c2ccccc2c(CN2CCOCC2)c2ccccc12
1849,-1.275,0.0416,245.973,None,O=C1CC2OCC=C3C[N+]4([O-])CCC56c7ccccc7N1C5C2C3CC64
1852,-4.819,2.81,167.868,None,O=[N+]([O-])c1ccc(-c2nc3cc(Cl)ccc3[nH]2)o1
1853,-4.966,4.85,238.977,None,O=C(O)Cc1sc(-c2ccccc2)nc1-c1ccc(Cl)cc1
1854,-4.244,2.42,163.836,None,CCOc1no[n+]([O-])c1S(=O)(=O)c1ccccc1
1858,-3.23,3.15,145.075,None,O=C(O)COc1c(Cl)cc(Cl)cc1Cl
1861,-0.815,0.23,154.821,None,O=P1(N(CCCl)CCCl)NCCCO1
1864,-3.886,4.02,189.866,None,Cc1cc(=O)oc2c3c4c(cc12)CCCN4CCC3
1865,-3.4330000000000003,2.5,227.33,None,Cc1nnc2n1-c1ccc(Cl)cc1C(c1ccccc1)=NC2
1878,-3.278,3.11,146.937,None,O=S(=O)(c1ccccc1)N(Br)Br
1887,-0.962,0.5,167.305,None,O=P1(N(CCCl)CCCl)NCCCCO1
1891,-3.399,1.68,194.556,None,c1ccc(CNC23OC4C5C6CC(C7C6C4C72)C53)cc1
1901,-3.931,1.69,148.80200000000005,None,COc1cc(Br)c2c(c1OC)C(=O)OC2
1945,-5.1610000000000005,3.19,182.984,None,COC(=O)c1cc2cc3c(C)cc(=O)oc3c(C)c2o1
1957,-2.111,2.38,177.342,None,CCOP(=O)(OCC)SCCSCC
1959,-2.846,4.26,186.853,None,CCCCOP(=O)(OCCCC)OCCCC
1966,-1.3259999999999998,0.99,180.788,None,CSCCC(C(=O)O)N(CCC#N)CCC#N
1969,-2.846,0.64,179.09900000000005,None,NC(CSCCSCC(N)C(=O)O)C(=O)O
1970,-2.494,0.94,191.583,None,NC(CSCCCSCC(N)C(=O)O)C(=O)O
1971,-3.624,1.3,204.067,None,NC(CSCCCCSCC(N)C(=O)O)C(=O)O
1973,-2.909,1.61,216.551,None,NC(CSCCCCCSCC(N)C(=O)O)C(=O)O
1974,-2.768,2.14,229.035,None,NC(CSCCCCCCSCC(N)C(=O)O)C(=O)O
1977,-2.127,0.67,250.56,None,CC(C)CC(NC(=O)C(C)NC(=O)CN)C(=O)NC(C(=O)O)C(C)C
2002,-1.357,2.45,184.615,None,CCSC(CCC(SCC)C(=O)O)C(=O)O
2004,-3.124,1.03,179.09900000000005,None,NC(CCSSCCC(N)C(=O)O)C(=O)O
2005,-2.2,3.02,208.271,None,C=CCSC(CCC(SCC=C)C(=O)O)C(=O)O
2007,-1.43,1.92,201.316,None,CC(C)CC(Br)C(=O)NC(C)C(=O)NC(C)C(=O)O
2009,-1.816,1.07,233.779,None,COC(OC(C)=O)C(OC(C)=O)C(OC(C)=O)C(COC(C)=O)OC(C)=O
2046,-3.108,2.24,200.657,None,CCCCCC(=O)NCCNC(=O)CCCCC
2047,-3.509,3.85,189.819,None,CCOC(=O)CCCCCCCCC(=O)OCC
2051,-0.7559999999999999,1.63,163.531,None,CCCCS(=O)(=O)NS(=O)(=O)CCCC
2052,-1.449,-0.36,155.16899999999995,None,O=S(=O)(CCCl)CCS(=O)(=O)CCCl
2053,-2.402,2.14,166.296,None,CCCCC(CC)COC(=O)NS(N)(=O)=O
2054,-0.7,-0.69,184.303,None,CC(O)C(=O)NCCCCCCNC(=O)C(C)O
2056,-4.397,1.72,191.009,None,COP(=S)(OC)SSP(=S)(OC)OC
2057,-1.419,3.24,174.424,None,O=C(O)CSC(SCC(=O)O)SCC(=O)O
2058,-2.195,3.76,213.467,None,CCCCCCS(=O)(=O)NS(=O)(=O)CCCCCC
2059,-2.097,-0.35,149.673,None,CC(=O)OC(OC(C)=O)C(OC(C)=O)OC(C)=O
2060,-0.922,-0.11,192.917,None,O=C(NCCCCCCNC(=O)OCCO)OCCO
2061,-4.569,8.1,289.691,None,CCCCCCOC(=O)CCCCCCCCC(=O)OCCCCCC
2062,-1.945,2.73,203.113,None,CCCS(=O)(=O)C(S(=O)(=O)CCC)S(=O)(=O)CCC
2063,-5.064,8.1,289.691,None,CCCCC(CC)COC(=O)CCCCC(=O)OCC(CC)CCCC
2064,-2.915,5.88,263.403,None,CCCCCCCCS(=O)(=O)NS(=O)(=O)CCCCCCCC
2065,-3.3360000000000003,2.07,189.734,None,CCOC(=O)CC(SP(=O)(OC)OC)C(=O)OCC
2066,-1.569,0.0015,187.125,None,CC(=O)OCC(COC(C)=O)(COC(C)=O)COC(C)=O
2067,-1.929,0.93,242.853,None,O=C(NCCCCCCNC(=O)OCCCCO)OCCCCO
2068,-2.974,4.33,240.565,None,CCCCS(=O)(=O)C(S(=O)(=O)CCCC)S(=O)(=O)CCCC
2073,-4.079,3.68,185.083,None,O=C(O)c1ccc(Cl)c(N=Nc2ccc(O)cc2)c1
2081,-3.766,6.19,223.538,None,CCCCCCCCN(C)N=Nc1ccc(C(=O)O)cc1
2082,-3.855,4.87,185.083,None,O=C(O)c1cc(Cl)ccc1N=Nc1ccc(O)cc1
2091,-3.077,4.78,213.224,None,CCCCCCCCCCNC(=O)c1cccnc1
2102,-4.959,4.28,251.218,None,O=[N+]([O-])c1ccc(OP(=O)(Oc2ccccc2)Oc2ccccc2)cc1
2104,-3.047,1.91,161.50799999999995,None,O=C1OC(c2ccc(Br)cc2)C(Br)C1=O
2105,-3.343,0.76,173.84599999999998,None,O=C1NC(=S)SC1=Cc1ccc(O)c(O)c1
2112,-2.059,2.31,168.84599999999998,None,CCOP(=O)(OCC)Oc1ccc([N+](=O)[O-])cc1
2129,-3.934,3.53,192.157,None,CCN(CC)C(=O)SCc1ccc(Cl)cc1
2132,-3.319,2.44,170.515,None,O=S(=O)(c1ccccc1O)c1ccccc1O
2133,-5.723,5.23,170.12900000000005,None,CCCCCCCCC(CO[N+](=O)[O-])O[N+](=O)[O-]
2134,-3.307,3.84,206.508,None,O=C(c1ccccc1)N(O)c1cccc2ccccc12
2137,-3.486,5.89,231.005,None,CCCCCOC(=O)c1ccccc1C(=O)OCCCCC
2139,-2.352,0.0845,181.56,None,NC(=O)CNC(=O)CNC(=O)OCc1ccccc1
2140,-5.266,6.0,269.139,None,CCC(=O)C(CCCCCCOc1ccc(OC)cc1Cl)C(=O)CC
2158,-5.699,4.23,196.043,None,COc1ccc(C=CC(=O)c2ccccc2O)cc1
2163,-2.68,1.6,220.148,None,CC12CCC3(O)C(CCC4=CC(=O)CCC43C)C1CCC2=O
2184,-4.127,2.57,184.793,None,Nc1ccc(S(=O)(=O)c2ccc(Cl)cc2)cc1
2192,-3.53,3.22,199.781,None,O=C(c1ccccc1I)N(O)c1ccccc1
2195,-3.222,1.35,166.415,None,CC(=O)NC(COC(=O)c1ccccc1)C(=O)O
2198,-2.832,4.36,202.37,None,O=C(O)C(Oc1ccccc1Cl)Oc1ccccc1Cl
2199,-5.9060000000000015,4.0,200.702,None,COc1cc(Oc2ccc(Cl)cc2Cl)ccc1[N+](=O)[O-]
2203,-3.741,4.95,262.651,None,CC(C)CC(NC(=O)OCC1c2ccccc2-c2ccccc21)C(=O)O
2204,-2.517,0.31,237.36,None,CC(=O)NS(=O)(=O)c1ccc(NC(=O)c2ccccc2C(=O)O)cc1
2216,-3.332,2.6,231.981,None,CCOC(=O)C(Cc1ccc(O)cc1)NC(=O)c1ccccc1
2217,-0.932,0.66,190.167,None,Cc1ccc(S(=O)(=O)NC(CCC(=O)O)C(=O)O)cc1
2218,-2.312,1.06,196.575,None,CCN(CC)C(=O)Cn1cc(Br)c(=O)c(Br)c1
2219,-3.177,2.04,225.341,None,CCN(CC)C(=O)Cn1cc(I)c(=O)c(I)c1
2220,-2.199,0.38,175.497,None,O=S(=O)(O)c1cc(I)c(O)c2ncccc12
2233,-3.006,3.25,188.74400000000003,None,O=C(O)c1ccccc1C(=O)c1ccc(Br)cc1
2237,-3.229,2.71,189.461,None,CN(CC(=O)O)C(=S)SCc1ccccc1
2240,-3.819,3.76,181.069,None,CCCOC(=O)c1ccccc1C(=O)OCCC
2241,-8.559,8.01,280.941,None,CCCCCCCOC(=O)c1ccccc1C(=O)OCCCCCCC
2248,-3.405,3.14,192.98,None,CCOC(=O)c1ccccc1C(=O)c1ccccc1
2249,-2.557,1.58,179.377,None,CC(C)CCC1(CCO)C(=O)NC(=S)NC1=O
2250,-2.375,1.76,179.377,None,CCCCCC1(CCO)C(=O)NC(=S)NC1=O
2253,-4.489,3.79,204.129,None,CS(=O)(=O)Nc1ccc([N+](=O)[O-])cc1Oc1ccccc1
2254,-2.8680000000000003,0.0854,167.765,None,Nc1ccc(S(=O)(=O)Nc2nncs2)cc1
2257,-3.085,2.11,191.861,None,CCCC(C)CC1(CCO)C(=O)NC(=S)NC1=O
2258,-3.143,2.11,191.861,None,CCC(CC)CC1(CCO)C(=O)NC(=S)NC1=O
2259,-1.811,2.51,210.647,None,Nc1ccc(S(=O)(=O)Nc2ccc(I)nc2)cc1
2261,-2.7880000000000003,2.92,215.185,None,CC12C=CC(=O)C=C1CCC1C2CCC2(C)C(=O)CCC12
2265,-3.159,0.86,174.83,None,CC(=O)Nc1ccc2nc(S(N)(=O)=O)sc2c1
2266,-3.903,3.09,235.93400000000003,None,CN1c2ccccc2C(O)(c2ccccc2)c2ccccc21
2269,-6.001,4.36,196.043,None,COc1ccc(O)c(C(=O)C=Cc2ccccc2)c1
2270,-3.144,0.8,194.679,None,Cc1cnc(NS(=O)(=O)c2ccc(N)cc2)nc1C
2273,-2.825,2.35,232.045,None,O=C(O)c1ccccc1C(=O)OCCOC(=O)c1ccccc1C(=O)O
2280,-3.535,2.6,198.197,None,CCC1(CC)C(=O)N(c2ccccc2)N=C1OC(C)=O
2285,-3.716,0.63,201.088,None,CC(=O)Nc1ccc(S(=O)(=O)Nc2ccccn2)cc1
2292,-3.942,3.98,191.176,None,Cc1ccc(S(=O)(=O)Oc2ccccc2C)cc1
2294,-4.4460000000000015,3.07,207.35,None,COc1cc(NC(=O)c2cccnc2)c2ncccc2c1
2303,-6.042000000000002,4.4,201.462,None,Nc1ccccc1C(=O)OCC=Cc1ccccc1
2305,-1.886,0.8,209.437,None,CC(=O)CC(C)=Nc1ccc(N=C(C)CC(C)=O)cc1
2306,-3.177,2.39,226.58,None,O=c1[nH]cnc2nc(-c3ccccc3)c(-c3ccccc3)nc12
2307,-3.921,4.04,243.131,None,O=C(O)CN(C(=S)SCc1ccccc1)c1ccccc1
2308,-3.414,1.39,205.217,None,CC(C)c1nnc(NS(=O)(=O)c2ccc(N)cc2)s1
2309,-3.3080000000000003,1.57,205.217,None,CCCc1nnc(NS(=O)(=O)c2ccc(N)cc2)s1
2310,-2.656,3.19,227.991,None,COC(=O)C(Cc1ccccc1)NC(=O)C(CC(=O)O)NC(=O)C(F)(F)F
2312,-4.222,5.58,192.965,None,CCCCCCCCOC(=O)c1ccc(O)cc1
2317,-4.021,3.3,197.756,None,CCCN(CCC)S(=O)(=O)c1ccc(C(=O)O)cc1
2318,-3.314,3.11,140.692,None,COC(=O)c1ccc(O)c(I)c1
2320,-3.492,3.64,153.17600000000004,None,CCOC(=O)c1ccc(O)c(I)c1
2321,-3.687,4.17,165.66,None,CCCOC(=O)c1ccc(O)c(I)c1
2322,-1.826,-0.00909,203.921,None,CCNC(=O)Nc1c(C)n(C)n(-c2ccccc2)c1=O
2324,-3.903,4.7,178.144,None,CCCCOC(=O)c1ccc(O)c(I)c1
2325,-3.823,1.92,217.701,None,CC(C)Cc1nnc(NS(=O)(=O)c2ccc(N)cc2)s1
2326,-4.418,3.9,190.316,None,Cc1ccc(C(=O)N(O)c2ccc(Cl)cc2)cc1
2327,-3.672,3.56,190.998,None,O=C(c1ccc(Cl)cc1Cl)N(O)c1ccccc1
2328,-6.005,2.22,257.344,None,O=C(O)c1ccc(P(=O)(c2ccccc2)c2ccc(C(=O)O)cc2)cc1
2329,-3.079,0.57,206.134,None,NS(=O)(=O)c1ccccc1-c1nc2ccccc2c(=O)[nH]1
2330,-4.169,2.33,223.553,None,CC(C)=NNC(=O)NC1c2ccccc2Oc2ccccc21
2333,-4.066,1.29,178.118,None,O=C(O)c1ccc(P(=O)(O)c2ccccc2)cc1
2334,-4.151,1.33,211.626,None,CC(=O)Nc1ccc(S(=O)(=O)Nc2nc(C)cs2)cc1
2335,-3.651,1.57,212.865,None,Nc1ccc(S(=O)(=O)Nc2ncc3c(n2)CCCC3)cc1
2336,-0.045,-0.25,181.843,None,CN1C(=O)C(Cc2ccc(O)cc2)N(CC(=O)O)C1=O
2337,-1.575,1.36,213.005,None,CC(C)CC(N)C(=O)NC(Cc1ccc(O)cc1)C(=O)O
2339,-2.351,2.71,195.626,None,CCN(CC)CC(C)OC(=O)c1ccc(N)cc1
2340,-2.384,2.71,195.626,None,CCN(CC)C(C)COC(=O)c1ccc(N)cc1
2341,-2.069,1.31,213.005,None,CC(C)CC(NC(=O)C(N)Cc1ccc(O)cc1)C(=O)O
2342,-1.629,1.05,228.889,None,CCCCNC(=O)Nc1c(C)n(C)n(-c2ccccc2)c1=O
2344,-3.847,1.24,162.509,None,O=C(c1ccco1)c1no[n+]([O-])c1C(=O)c1ccco1
2345,-0.484,0.26,170.722,None,O=C(O)CC(O)(CC(=O)O)C(=O)Nc1ccccc1