,Expt,ClogP,Polarizability,Name,smiles
2804,-2.914,3.79,217.148,None,CCCCCCCCSC1C(O)C(O)OC(CO)C1O
2805,-0.28,-2.29,223.424,None,CC(O)C1C(=O)N2C(C(=O)O)=C(SCC(=N)N(C)C)C(C)C12
2811,-3.959,3.95,219.654,None,Brc1cccc(Nc2ncnc3cc4[nH]ncc4cc23)c1
2813,-2.824,4.27,225.475,None,Brc1cccc(Nc2ncnc3cc4[nH]ccc4cc23)c1
2815,-3.861,3.14,213.572,None,CN(C)c1ccc(N=Nc2ccc(S(=O)(=O)O)cc2)cc1
2816,-4.4689999999999985,1.34,205.65,None,O=C1NC(c2ccccc2)(c2ccccc2)C(=O)N1CO
2818,-3.31,4.67,237.959,None,Cn1ccc2cc3c(Nc4cccc(Br)c4)ncnc3cc21
2819,-3.4810000000000003,4.06,232.138,None,Cn1ncc2cc3c(Nc4cccc(Br)c4)ncnc3cc21
2820,-1.958,4.05,255.338,None,O=C(O)Cn1ccc2cc3c(Nc4cccc(Br)c4)ncnc3cc21
2822,-5.627999999999999,4.24,283.029,None,CCc1ccc(C(=O)NN(C(=O)c2cc(C)cc(C)c2)C(C)(C)C)cc1
2825,-3.537,5.85,277.731,None,Clc1ccc(C(Cn2ccnc2)OCc2cc(Cl)ccc2Cl)c(Cl)c1
2835,-3.094,3.11,230.038,None,CCN(CC)CCSc1nnc2[nH]c3ccccc3c2n1
2836,-1.425,-1.08,168.25,None,Nc1ncc2ncn(CCC3COC(=O)OC3)c2n1
2837,-4.52,1.34,221.778,None,CS(=O)(=O)c1ccc(C2=C(c3ccccc3)C(=O)OC2)cc1
2839,-2.124,1.78,140.11,None,OCC1OC2OC(C(Cl)(Cl)Cl)OC2C1O
2842,-1.237,2.96,268.643,None,CCOC(=O)C(CCc1ccccc1)NC(C)CN1CCCC1C(=O)O
2843,-1.177,2.43,269.231,None,CCOC(=O)C(CCc1ccccc1)NC(C)C(=O)N1CCCC1C(=O)O
2845,-1.109,0.73,232.181,None,OCC1OC(OCCc2cccc3ccccc23)C(O)C(O)C1O
2848,-1.229,1.59,182.901,None,CC1(C)OCC(COC(=O)c2ccccc2C(=O)O)O1
2851,-1.509,-2.36,214.837,None,CC1NC(=O)c2ccccc2N(CC(O)C(O)C(O)CO)C1=O
2852,-1.456,-2.85,202.353,None,O=C1NCC(=O)N(CC(O)C(O)C(O)CO)c2ccccc21
2854,-1.459,-0.67,165.37099999999995,None,OCC1OC(Oc2ccccc2)C(O)C(O)C1O
2856,-1.519,3.37,259.961,None,COc1ccc2cc(C(C)C(=O)OCCN3CCNCC3)ccc2c1
2857,-1.487,2.94,272.445,None,COc1ccc2cc(C(C)C(=O)OCCN3CCN(C)CC3)ccc2c1
2858,-3.699,3.74,279.51,None,COc1ccc2cc(C(C)C(=O)OCCCCN3CCOCC3)ccc2c1
2860,-1.286,3.46,297.413,None,COc1ccc2cc(C(C)C(=O)OCCCCN3CCN(C)CC3)ccc2c1
2862,-4.699,1.77,166.541,None,O=C1Nc2ccc(Cl)cc2C(=O)N2CCCC12
2864,-1.945,0.18,181.301,None,CC1=C2C(O)C3C(CC(C)C2CC1=O)OC(=O)C3C
2866,-4.837,5.14,267.058,None,CCOC(=O)C1=CC2(CC)CCCN3CCc4c(n1c1ccccc41)C32
2867,-4.347,3.08,247.56,None,c1ccc(-c2cnc(-c3ccc(CN4CCOCC4)cc3)o2)cc1
2870,-0.845,0.21,186.018,None,NC(Cc1c[nH]c2ccccc12)C(=O)NCC(=O)O
2872,-2.6180000000000003,3.55,185.083,None,O=C(O)c1ccc(N=Nc2ccc(O)cc2)cc1Cl
2873,-1.275,-0.51,181.082,None,O=[N+]([O-])c1cccc(OC2OC(CO)C(O)C(O)C2O)c1
2874,-1.936,1.85,225.148,None,O=C(O)C1CN2CCC1CC2C(O)c1ccnc2ccccc12
2875,-2.01,4.42,187.628,None,O=C(O)c1cc(N=Nc2ccccc2[N+](=O)[O-])ccc1O
2876,-3.222,3.62,254.294,None,COCC1COc2cc3ncnc(Nc4cccc(Br)c4)c3cc2O1
2877,-2.185,1.22,206.857,None,CC(=O)OC1C2C(CC(C)C3C=CC(=O)C31C)OC(=O)C2C
2878,-3.523,3.88,268.677,None,COCC1COc2cc3ncnc(Nc4cccc(I)c4)c3cc2O1
2879,-2.759,0.35,215.419,None,Nc1ccc(S(=O)(=O)Nc2ccc(S(N)(=O)=O)cc2)cc1
2880,-1.305,-2.14,159.431,None,O=C(O)C1CCC(=O)N1CN1C(=O)CCC1C(=O)O
2881,-0.862,0.8,194.327,None,COc1ccc(CC2NC(=O)N(C(C)C(=O)O)C2=O)cc1
2882,-2.381,0.38,230.417,None,CC(C)C(NS(=O)(=O)c1ccc(F)cc1)C(=O)NC1CCOC1O
2883,-2.37,0.51,258.976,None,CC(C)CC(NC(=S)Nc1ccccc1)C(=O)NC1CCOC1O
2884,-4.398,3.5,226.081,None,COC1=CC(=O)C2(Oc3c(Cl)c(OC)cc(OC)c3C2=O)C(C)C1
2885,-1.116,2.02,235.954,None,CC(C)CC(N)C(=O)NC(Cc1c[nH]c2ccccc12)C(=O)O
2886,-2.029,1.94,241.939,None,COc1ccc2nccc(C(O)C3CC4CCN3CC4C(=O)O)c2c1
2887,-2.337,2.42,217.972,None,COc1cc(OC)c2c(c1Cl)OC1(C2=O)C(C)CC(O)CC1O
2888,-4.574,2.79,271.328,None,CC12CCC(O)CC1CCC1C2CCC2(C)C(C3=CC(=O)OC3)CCC12O
2891,-2.11,-0.58,224.068,None,O=C1C(O)C2CC3N1CCC31c3ccccc3N3C(=O)C=CC2C31
2894,-3.129,0.72,239.569,None,OCC(O)C(O)c1nn(-c2ccccc2)c2nc3ccccc3nc12
2895,-2.8110000000000004,1.88,234.879,None,CC1(C)SC2C(NC(=O)COc3ccccc3)C(=O)N2C1C(=O)O
2897,-2.12,1.42,195.909,None,CC(C)CC1OC(O)C(Cc2ccccc2)NC1=O
2899,-1.658,2.18,207.537,None,CC(NC(=O)C(N)c1ccccc1)c1ccccc1
2901,-1.775,1.06,154.475,None,O=c1[nH]c(CN2CCCC2)c(Br)c(=O)[nH]1
2902,-2.647,1.68,226.997,None,CC(=O)OCC1OC(OC(C)=O)C(OC(C)=O)C(OC(C)=O)C1OC(C)=O
2903,-1.59,4.09,215.34,None,CNCCC(Oc1ccc(C(F)(F)F)cc1)c1ccccc1
2905,-3.8032,4.54,233.512,pentazocine,CC(C)=CCN1CCC2(C)c3cc(O)ccc3CC1C2C
2906,-2.254,0.67,166.415,"Skeleton = 2, R1 = CH3, R2 = CH2COOH",CN(CC(=O)O)C(=O)COC(=O)c1ccccc1
2907,-2.1416,0.56,172.11700000000005,"Skeleton = 2, NR1R2 = azetidine-2-carboxylic acid",O=C(OCC(=O)N1CCC1C(=O)O)c1ccccc1
2909,-1.8856,0.26,186.018,glycyl-L-tryptophan,NCC(=O)NC(Cc1c[nH]c2ccccc12)C(=O)O
2910,-1.2219,0.1,205.715,dorzolamide,CCNC1CC(C)S(=O)(=O)c2sc(S(N)(=O)=O)cc21
2912,-2.9208,0.2,192.105,benzolamide,NS(=O)(=O)c1nnc(NS(=O)(=O)c2ccccc2)s1
2922,0.38,2.29,205.754,oxprenolol,C=CCOc1ccccc1OCC(O)CNC(C)C
2924,0.04,0.0965,199.933,atenolol,CC(C)NCC(O)COc1ccc(CC(N)=O)cc1
2925,-1.3,2.31,253.603,labetalol,CC(CCc1ccccc1)NCC(O)c1ccc(O)c(C(N)=O)c1
2926,-4.4733,1.26,199.544,"Skeleton = 4, X = S, R1 = OCH3",COc1ccc(C(=O)c2ccc(S(N)(=O)=O)s2)cc1
2927,-1.3785,2.07,271.69,"Skeleton = 4, X = S, R1 = OH, R2 = CH2N(CH3)-i-Bu",CC(C)CN(C)Cc1cc(C(=O)c2ccc(S(N)(=O)=O)s2)ccc1O
2928,-1.4906,0.66,234.238,"Skeleton = 4, X = S, R1 = OH, R2 = CH2N(CH3)2",CN(C)Cc1cc(C(=O)c2ccc(S(N)(=O)=O)s2)ccc1O
2929,-1.5471,1.92,254.899,"Skeleton = 4, X = S, R2 = CH2NH-i-Bu",CC(C)CNCc1cccc(C(=O)c2ccc(S(N)(=O)=O)s2)c1
2930,-1.8828,0.17,252.424,"Skeleton = 4, X = S, R2 = CH2-morpholine",NS(=O)(=O)c1ccc(C(=O)c2cccc(CN3CCOCC3)c2)s1
2931,-1.4569,2.45,267.383,"Skeleton = 4, X = S, R2 = CH2NH-iso-pentyl",CC(C)CCNCc1cccc(C(=O)c2ccc(S(N)(=O)=O)s2)c1
2932,-4.1481,0.16,181.485,"Skeleton = 4, X = O, R1 = OCH3",COc1ccc(C(=O)c2ccc(S(N)(=O)=O)o2)cc1
2933,-4.2219,1.26,210.812,"Skeleton = 5, X = S, R1 = OCH3",COc1ccc(S(=O)(=O)c2ccc(S(N)(=O)=O)s2)cc1
2934,-3.0272,0.76,198.328,"Skeleton = 5, X = S, R1 = OH",NS(=O)(=O)c1ccc(S(=O)(=O)c2ccc(O)cc2)s1
2935,-4.0245,1.5,206.505,"Skeleton = 5, X = S, R1 = CH3",Cc1ccc(S(=O)(=O)c2ccc(S(N)(=O)=O)s2)cc1
2936,-1.0607,-0.0006129999999999999,263.692,"Skeleton = 5, X = S, R1 = CH2-1-morpholine ",NS(=O)(=O)c1ccc(S(=O)(=O)c2ccc(CN3CCOCC3)cc2)s1
2937,-1.1196,1.75,266.16700000000003,"Skeleton = 5, X = S, R1 = CH2NH-i-Bu",CC(C)CNCc1ccc(S(=O)(=O)c2ccc(S(N)(=O)=O)s2)cc1
2938,-1.6449,1.94,266.16700000000003,"Skeleton = 5, X = S, R1 = CH2NH-n-Bu",CCCCNCc1ccc(S(=O)(=O)c2ccc(S(N)(=O)=O)s2)cc1
2939,-2.8612,0.9,187.06,"Skeleton = 4, X = S, R1 = OH",NS(=O)(=O)c1ccc(C(=O)c2ccc(O)cc2)s1
2940,-0.6726,0.75,289.048,"Skeleton = 5, X = S, R1 = CH2NHCH2-2-pyridine",NS(=O)(=O)c1ccc(S(=O)(=O)c2ccc(CNCc3ccccn3)cc2)s1
2941,-2.719,0.0653,198.328,"Skeleton = 5, X = S, R2 = OH",NS(=O)(=O)c1ccc(S(=O)(=O)c2cccc(O)c2)s1
2942,-1.5519999999999998,1.75,266.16700000000003,"Skeleton = 5, X = S, R2 = CH2NH-i-Bu",CC(C)CNCc1cccc(S(=O)(=O)c2ccc(S(N)(=O)=O)s2)c1
2943,-1.2884,1.75,266.16700000000003,"Skeleton = 5, X = S, R2 = CH2NH-s-Bu",CCC(C)NCc1cccc(S(=O)(=O)c2ccc(S(N)(=O)=O)s2)c1
2944,-1.9266,1.75,266.16700000000003,"Skeleton = 5, X = S, R3 = CH2NH-i-Bu",CC(C)CNCc1ccccc1S(=O)(=O)c1ccc(S(N)(=O)=O)s1
2945,-1.5165,1.22,253.683,"Skeleton = 5, X = S, R2 = CH2NH-i-Pr",CC(C)NCc1cccc(S(=O)(=O)c2ccc(S(N)(=O)=O)s2)c1
2946,-1.9362,1.57,266.16700000000003,"Skeleton = 5, X = S, R1 = CH2NH-t-Bu",CC(C)(C)NCc1cccc(S(=O)(=O)c2ccc(S(N)(=O)=O)s2)c1
2947,-1.9109,0.75,289.048,"Skeleton = 5, X = S, R3 = CH2NHCH2-2-pyridine",NS(=O)(=O)c1ccc(S(=O)(=O)c2ccccc2CNCc2ccccn2)s1
2948,-2.4608,0.89,270.474,"Skeleton = 5, X = S, R2 = CH2NEt2, R2 = OH",CCN(CC)Cc1ccc(S(=O)(=O)c2ccc(S(N)(=O)=O)s2)cc1O
2949,-3.0244,0.16,192.753,"Skeleton = 5, X = O, R1 = OCH3",COc1ccc(S(=O)(=O)c2ccc(S(N)(=O)=O)o2)cc1
2950,-2.4027,-0.34,180.269,"Skeleton = 5, X = O, R1 = OH",NS(=O)(=O)c1ccc(S(=O)(=O)c2ccc(O)cc2)o1
2951,-4.4492,1.67,195.237,"Skeleton = 4, X = S, R1 = CH3",Cc1ccc(C(=O)c2ccc(S(N)(=O)=O)s2)cc1
2952,-3.7801,0.4,188.446,"Skeleton = 5, X = O, R1 = CH3",Cc1ccc(S(=O)(=O)c2ccc(S(N)(=O)=O)o2)cc1
2953,-2.352,0.51,217.447,"Skeleton = 4, X = S, R1 = CH2NHCH3",CNCc1ccc(C(=O)c2ccc(S(N)(=O)=O)s2)cc1
2954,-2.003,1.92,254.899,"Skeleton = 4, X = S, R1 = CH2NH-i-Bu",CC(C)CNCc1ccc(C(=O)c2ccc(S(N)(=O)=O)s2)cc1
2955,-3.3319,2.41,283.601,"Skeleton = 4, X = S, R1 = CH2NHCH2Ph",NS(=O)(=O)c1ccc(C(=O)c2ccc(CNCc3ccccc3)cc2)s1
2956,-2.1669,2.11,254.899,"Skeleton = 4, X = S, R1 = CH2NH-n-Bu",CCCCNCc1ccc(C(=O)c2ccc(S(N)(=O)=O)s2)cc1
2957,-1.4812,0.17,252.424,"Skeleton = 4, X = S, R1 = CH2-1-morpholine ",NS(=O)(=O)c1ccc(C(=O)c2ccc(CN3CCOCC3)cc2)s1
2958,-1.8802,-0.0855,270.327,"Skeleton = 4, X = S, R1 = CH2-1-(4-methylpiperazine)",CN1CCN(Cc2ccc(C(=O)c3ccc(S(N)(=O)=O)s3)cc2)CC1
2959,-1.0324,1.72,259.206,"Skeleton = 4, X = S, R1 = OH, R2 = CH2NEt2",CCN(CC)Cc1cc(C(=O)c2ccc(S(N)(=O)=O)s2)ccc1O