,Expt,ClogP,Polarizability,Name,smiles
1551,0.38,-1.19,40.011,oxalic acid,O=C(O)C(=O)O
1554,0.43,1.08,111.949,triethyl phosphate,CCOP(=O)(OCC)OCC
1555,0.65,-0.45,134.091,azodrin,CNC(=O)C=C(C)OP(=O)(OC)OC
1556,-4.38,4.38,153.145,dibenzothiophene,c1ccc2c(c1)sc1ccccc12
1564,-2.07,2.28,139.401,tricyclazole,Cc1cccc2sc3nncn3c12
1566,-2.59,2.89,94.429,2-ethylthiophene,CCc1cccs1
1568,-3.14,3.0,175.86,carboxin,CC1=C(C(=O)Nc2ccccc2)SCCO1
1570,-1.77,0.0643,87.25,rhodanine,O=C1CSC(=S)N1
1571,-2.13,0.16,121.356,dazomet,CN1CSC(=S)N(C)C1
1572,-2.39,2.36,81.945,3-methylthiophene,Cc1ccsc1
1573,-1.47,1.5,86.84,thiophene-3-carboxylic acid,O=C(O)c1ccsc1
1574,-1.45,1.9,69.461,thiophene,c1ccsc1
1575,-1.5,2.01,105.482,benzothiazole,c1ccc2scnc2c1
1576,-3.68,3.96,193.846,2-(4-aminophenyl)-6-methyl-benzothiazole,Cc1ccc2nc(-c3ccc(N)cc3)sc2c1
1578,-3.18,2.41,127.848,2-mercaptobenzothiazole,Sc1nc2ccccc2s1
1579,-0.36,0.38,73.366,2-aminothiazole,Nc1nccs1
1581,-2.68,2.8,158.941,bentazon,CC(C)N1C(=O)c2ccccc2NS1(=O)=O
1583,-1.64,0.91,111.763,saccharin,O=C1NS(=O)(=O)c2ccccc21
1588,-2.36,-0.93,112.331,1H-pteridine-2-thione,S=c1ncc2nccnc2[nH]1
1589,-2.71,0.37,112.331,8H-pteridine-7-thione,S=c1cnc2cncnc2[nH]1
1590,-3.36,2.99,175.07,thiopental,CCCC(C)C1(CC)C(=O)NC(=S)NC1=O
1592,-0.71,-0.66,74.02199999999998,ethylenethiourea,S=C1NCCN1
1593,-2.77,-0.34,112.331,3H-pteridine-4-thione,S=c1[nH]cnc2nccnc12
1594,-2.26,-0.28,86.43799999999997,2-thiouracil,O=c1cc[nH]c(=S)[nH]1
1595,-2.15,1.37,123.89,propylthiouracil,CCCc1cc(=O)[nH]c(=S)[nH]1
1596,-2.43,0.31,98.922,methylthiouracil,Cc1cc(=O)[nH]c(=S)[nH]1
1598,-2.58,3.01,102.523,di-n-propylsulfide,CCCSCCC
1599,-3.35,3.9,162.773,pedulate,CCCCN(CC)C(=O)SCCC
1600,-0.42,0.37,104.66,methionine,CSCCC(N)C(=O)O
1603,-2.09,2.04,170.81400000000005,ethiofencarb,CCSCc1ccccc1OC(=O)NC
1604,-1.34,1.95,77.555,diethyl sulfide,CCSCC
1605,-3.4,3.83,168.475,cycloate,CCSC(=O)N(CC)C1CCCCC1
1606,-3.68,4.06,175.257,butylate,CCSC(=O)N(CC(C)C)CC(C)C
1607,-1.62,2.37,160.60299999999995,thiofanox,CNC(=O)ON=C(CSC)C(C)(C)C
1609,-2.39,2.7,106.257,thioanisole,CSc1ccccc1
1610,-1.55,-1.08,124.815,7-methylthiopteridine,CSc1cnc2ncncc2n1
1611,-1.76,0.027000000000000003,124.815,4-methylthiopteridine,CSc1ncc2nccnc2n1
1612,-1.55,-1.08,124.815,7-methylsulfanyl-pteridine,CSc1cnc2cncnc2n1
1613,-2.36,0.0813,124.815,2-methylthiopteridine,CSc1ncnc2nccnc12
1614,-2.68,-0.43,158.18200000000004,simetryn,CSc1nc(N(C)C)nc(N(C)C)n1
1616,-4.0,3.44,183.15,terbutryne,CCNc1nc(NC(C)(C)C)nc(SC)n1
1617,-3.04,3.09,170.666,ametryn,CCNc1nc(NC(C)C)nc(SC)n1
1618,-4.1,3.44,183.15,prometryn,CSc1nc(NC(C)C)nc(NC(C)C)n1
1619,-2.25,1.3,152.763,metribuzin,CSc1nnc(C(C)(C)C)c(=O)n1N
1620,-0.45,0.89,52.587,dimethyl sulfide,CSC
1621,0.11,-0.47,145.94899999999996,oxamyl,CNC(=O)ON=C(SC)C(=O)N(C)C
1622,-2.24,2.64,102.523,diisopropylsulfide,CC(C)SC(C)C
1623,-4.6,4.47,148.711,1-naphthyl isothiocyanate,S=C=Nc1cccc2ccccc12
1624,0.32,-1.05,55.83600000000001,thiourea,NC(N)=S
1625,-1.77,0.73,121.99,1-phenylthiourea,NC(=S)Nc1ccccc1
1626,-1.46,0.72,105.772,"1,3-diethylthiourea",CCNC(=S)NCC
1627,-2.12,2.52,93.773,thiophenol,Sc1ccccc1
1628,-2.71,-1.26,112.331,pteridine-6-thiol,Sc1cnc2ncncc2n1
1629,-2.77,-0.1,112.331,pteridine-2-thiol,Sc1ncc2nccnc2n1
1630,-2.45,-1.39,98.922,5-methyl-2-thiouracil,Cc1cnc(S)nc1O
1631,-2.26,-1.85,86.43799999999997,2-thiouracil,Oc1ccnc(S)n1
1632,-2.43,-1.39,98.922,methylthiouracil,Cc1cc(O)nc(S)n1
1633,-2.36,-1.12,112.331,pteridine-4-thiol,Sc1ncnc2nccnc12
1634,-2.27,-0.28,86.43799999999997,thiouracil,O=c1ccnc(S)[nH]1
1635,-0.13,0.93,104.66,pencillamine,CC(C)(S)C(N)C(=O)O
1636,-2.18,2.31,77.555,butanethiol,CCCCS
1637,-0.6,1.25,52.587,ethanethiol,CCS
1643,-2.82,0.94,181.353,dapsone,Nc1ccc(S(=O)(=O)c2ccc(N)cc2)cc1
1644,0.04,-0.13,79.529,diethyl sulfone,CCS(=O)(=O)CC
1647,-2.02,0.79,117.957,2-toluenesulfonamide,Cc1ccccc1S(N)(=O)=O
1648,-1.74,0.79,117.957,4-toluenesulfonamide,Cc1ccc(S(N)(=O)=O)cc1
1649,-1.36,-0.72,115.199,sulfanilamide,Nc1ccc(S(N)(=O)=O)cc1
1650,-1.61,0.000122,140.755,N-acetylsulfanilamide,CC(=O)Nc1ccc(S(N)(=O)=O)cc1
1651,-1.56,0.33,105.473,benzenesulfonamide,NS(=O)(=O)c1ccccc1
1653,-2.36,-0.26,127.167,acetazoleamide,CC(=O)Nc1nnc(S(N)(=O)=O)s1
1654,-1.83,0.13,139.651,methazolamide,CC(=O)N=c1sc(S(N)(=O)=O)nn1C
1660,-2.7,0.0339,175.532,sulfapyridine,Nc1ccc(S(=O)(=O)Nc2ccccn2)cc1
1675,-1.99,-1.22,143.416,sulfaguanidine,N=C(N)NS(=O)(=O)c1ccc(N)cc1
1676,-1.23,-0.96,140.755,sulfanilacetamide,CC(=O)NS(=O)(=O)c1ccc(N)cc1
1683,-1.66,-0.11,145.062,asulam,COC(=O)NS(=O)(=O)c1ccc(N)cc1
1685,-0.83,1.19,121.244,allicin,C=CCSS(=O)CC=C
1690,0.54,-0.85,111.047,acephate,COP(=O)(NC(C)=O)SC
1700,-3.09,2.25,170.433,thiometon,CCSCCSP(=S)(OC)OC
1704,-2.42,2.83,99.921,diethyldisulfide,CCSSCC
1705,-1.44,1.77,74.953,dimethyldisulfide,CSSC
1707,-3.9,1.75,181.635,thiram,CN(C)C(=S)SSC(=S)N(C)C
1708,-3.96,4.27,130.779,Acenaphthalene  ,C1=Cc2cccc3cccc1c23
1709,1.58,-1.23,40.535,Acetamide  ,CC(N)=O
1710,0.26,-0.45,30.833,Acetonitrile  ,CC#N
1711,-1.28,1.66,96.963,Acetophenone  ,CC(=O)c1ccccc1
1712,0.97,-0.01,42.637,Acrolein  ,C=CC=O
1713,0.57,-0.01,42.637,Acrylaldehyde  ,C=CC=O
1714,0.98,-0.78,52.363,Acrylamide  ,C=CC(N)=O
1715,0.15,0.19,42.661,Acrylonitrile  ,C=CC#N
1716,-1.89,2.3,97.536,Amyl acetate  ,CCCCCOC(C)=O
1717,-4.15,4.44,133.827,t-Amylbenzene  ,CCC(C)(C)c1ccccc1
1719,-1.85,2.13,88.198,Anisole  ,COc1ccccc1
1720,-6.39,4.68,155.091,Anthracene  ,c1ccc2cc3ccccc3cc2c1
1721,-5.19,3.38,156.923,Anthraquinone  ,O=C1c2ccccc2C(=O)c2ccccc21
1722,-1.19,1.64,84.479,Benzaldehyde  ,O=Cc1ccccc1
1723,-0.96,0.74,94.205,Benzamide  ,NC(=O)c1ccccc1
1724,-1.64,2.22,71.407,Benzene  ,c1ccccc1
1725,-6.68,5.39,185.105,Benzo[a]fluorene  ,c1ccc2c(c1)Cc1c-2ccc2ccccc12
1728,-8.04,5.39,185.105,Benzo[b]fluorene  ,c1ccc2c(c1)Cc1cc3ccccc3cc1-2
1729,-1.0,1.65,84.50299999999999,Benzonitrile  ,N#Cc1ccccc1
1730,-3.12,3.18,150.63299999999995,Benzophenone  ,O=C(c1ccccc1)c1ccccc1
1733,-4.62,4.7,162.529,Bibenzyl  ,c1ccc(CCc2ccccc2)cc1
1734,-4.31,3.98,137.561,Biphenyl  ,c1ccc(-c2ccccc2)cc1
1735,-2.43,2.56,75.921,1-Bromo-2-methylpropane  ,CC(C)CBr
1736,-1.85,2.18,76.60300000000002,1-Bromo-3-chloropropane  ,ClCCCBr
1737,-2.89,3.09,88.405,1-Bromo-3-methylbutane  ,CC(C)CCBr
1738,-2.18,2.48,109.518,3-Bromo-4-hydroxybenzaldehyde  ,O=Cc1ccc(O)c(Br)c1
1739,-2.55,2.99,92.139,Bromobenzene  ,Brc1ccccc1
1740,-2.37,2.74,75.921,1-Bromobutane  ,CCCCBr
1741,-3.19,3.5,105.305,2-Bromochlorobenzene  ,Clc1ccccc1Br
1742,-3.21,3.54,105.305,3-Bromochlorobenzene  ,Clc1cccc(Br)c1
1743,-0.89,1.41,51.635,Bromochloromethane  ,ClCBr
1744,-1.54,2.02,64.801,Bromodichloromethane  ,ClC(Cl)Br
1745,-1.09,1.68,50.953,Bromoethane  ,CCBr
1746,-1.73,2.21,63.437,1-Bromopropane  ,CCCBr
1747,-1.59,2.03,63.437,2-Bromopropane  ,CC(C)Br
1748,-3.52,3.45,104.623,m-Bromotoluene  ,Cc1cccc(Br)c1
1749,-2.95,2.88,55.18899999999999,Butane  ,CCCC
1750,0.0,0.88,59.496,1-Butanol  ,CCCCO
1751,0.43,0.69,59.496,2-Butanol  ,CCC(C)O
1752,-0.42,0.8,88.771,2-Butoxyethanol  ,CCCCOCCO
1753,-1.24,1.77,85.052,Butyl acetate  ,CCCCOC(C)=O
1754,-4.06,4.27,121.343,Butyl benzene  ,CCCCc1ccccc1
1755,-3.66,3.91,121.343,t-Butyl benzene  ,CC(C)(C)c1ccccc1
1756,-3.89,4.09,121.343,2-Butyl benzene  ,CCC(C)c1ccccc1
1757,-0.01,0.91,55.777,Butyraldehyde  ,CCCC=O
1758,-1.88,2.13,117.117,Camphor  ,CC12CCC(CC1=O)C2(C)C
1759,-1.3,1.97,80.745,Caproaldehyde  ,CCCCCC=O
1760,-2.36,3.03,105.713,Caprylaldehyde  ,CCCCCCCC=O
1761,-2.29,2.86,70.40100000000002,Carbon tetrachloride  ,ClC(Cl)(Cl)Cl
1762,-1.32,1.61,64.119,1-Chloro-2-Bromoethane  ,ClCCBr
1763,-2.51,2.73,80.839,2-Chloro-2-methylbutane  ,CCC(C)(C)Cl
1764,-2.0,2.38,68.355,1-Chloro-2-methylpropane  ,CC(C)CCl
1765,-2.92,2.6,100.284,1-Chloro-4-nitrobenzene  ,O=[N+]([O-])c1ccc(Cl)cc1
1766,-2.46,2.68,101.364,2-Chloroanisole  ,COc1ccccc1Cl
1767,-2.78,2.96,101.364,3-Chloroanisole  ,COc1cccc(Cl)c1
1768,-2.78,2.82,101.364,4-Chloroanisole  ,COc1ccc(Cl)cc1
1769,-2.41,2.81,84.573,Chlorobenzene  ,Clc1ccccc1
1770,-4.54,4.45,150.727,o-Chlorobiphenyl  ,Clc1ccccc1-c1ccccc1
1771,-4.88,4.54,150.727,m-Chlorobiphenyl  ,Clc1cccc(-c2ccccc2)c1
1772,-5.2,4.55,150.727,p-Chlorobiphenyl  ,Clc1ccc(-c2ccccc2)cc1
1773,-2.03,2.56,68.355,1-Chlorobutane  ,CCCCCl
1774,-1.96,2.38,68.355,2-Chlorobutane  ,CCC(C)Cl
1775,-5.87,5.1,152.559,2-Chlorodibenzo-p-dioxin  ,Clc1ccc2c(c1)Oc1ccccc1O2
1776,-1.9,2.2,72.367,Chlorodibromomethane  ,ClC(Br)Br
1777,-4.78,4.59,155.034,2-Chlorodiphenyl ether  ,Clc1ccccc1Oc1ccccc1
1778,-3.12,3.63,93.323,1-Chlorohexane  ,CCCCCCCl
1779,-2.73,3.09,80.839,1-Chloropentane  ,CCCCCCl
1780,-2.63,2.91,80.839,2-Chloropentane  ,CCCC(C)Cl
1781,-2.63,2.91,80.839,3-Chloropentane  ,CCC(Cl)CC
1782,-1.47,2.03,55.871,1-Chloropropane  ,CCCCl
1783,-1.41,1.85,55.871,2-Chloropropane  ,CC(C)Cl
1784,-1.36,1.65,55.215,3-Chloropropylene  ,C=CCCl
1785,-3.52,3.27,97.057,m-Chlorotoluene  ,Cc1cccc(Cl)c1
1786,-3.52,3.27,97.057,o-Chlorotoluene  ,Cc1ccccc1Cl
1787,-3.08,3.27,97.057,p-Chlorotoluene  ,Cc1ccc(Cl)cc1
1789,-8.06,5.91,196.933,Chrysene  ,c1ccc2c(c1)ccc1c3ccccc3ccc21
1792,-1.73,1.39,106.316,Coumarin  ,O=c1ccc2ccccc2o1
1793,-1.97,2.3,72.063,"1,4-Cyclohexadiene  ",C1=CCC=CC1
1794,-3.1,3.39,73.375,Cyclohexane  ,C1CCCCC1
1795,-0.44,1.34,77.682,Cyclohexanol  ,OC1CCCCC1
1796,-0.6,0.76,73.96300000000002,Cyclohexanone  ,O=C1CCCCC1
1797,-2.59,2.89,72.719,Cyclohexene  ,C1=CCCCC1
1798,-2.64,2.82,60.89100000000001,Cyclopentane  ,C1CCCC1
1799,-2.1,2.33,60.235,Cyclopentene  ,C1=CCCC1
1803,-4.44,4.12,135.086,Dibenzofuran  ,c1ccc2c(c1)oc1ccccc12
1804,-5.34,4.38,139.393,Dibenzo-p-dioxin  ,c1ccc2c(c1)Oc1ccccc1O2
1805,-5.21,4.38,153.145,Dibenzothiophene  ,c1ccc2c(c1)sc1ccccc12
1806,-3.5,3.63,112.871,"1,2-Dibromobenzene  ",Brc1ccccc1Br
1807,-3.54,3.72,112.871,"1,3-Dibromobenzene  ",Brc1cccc(Br)c1
1808,-4.07,3.79,112.871,"1,4-Dibromobenzene  ",Brc1ccc(Br)cc1
1810,-1.68,2.08,71.685,"1,2-Dibromoethane  ",BrCCBr
1811,-1.32,2.07,71.029,"1,2-Dibromoethylene  ",BrC=CBr
1812,-1.17,1.54,59.201,Dibromomethane  ,BrCBr
1813,-2.08,2.56,84.169,"1,3-Dibromopropane  ",BrCCCBr
1814,-2.15,2.43,84.169,"1,2-Dibromopropane  ",CC(Br)CBr
1815,-1.85,3.11,109.432,Dibutyl ether  ,CCCCOCCCC
1816,-2.59,3.03,118.197,Dibutylketone  ,CCCCC(=O)CCCC
1817,-2.69,2.46,94.005,"2,3-DiChloro-2-methylbutane  ",CC(Cl)C(C)(C)Cl
1818,-0.11,0.66,73.344,"1,3-DiChloro-2-propanol  ",OC(CCl)CCl
1819,-3.31,3.38,114.53,"2,3-Dichloroanisole  ",COc1cccc(Cl)c1Cl
1820,-3.1,3.24,114.53,"2,6-Dichloroanisole  ",COc1c(Cl)cccc1Cl
1821,-3.02,3.28,97.739,"1,2-Dichlorobenzene  ",Clc1ccccc1Cl
1822,-3.07,3.42,97.739,"1,3-Dichlorobenzene  ",Clc1cccc(Cl)c1
1823,-3.31,3.34,97.739,"1,4-Dichlorobenzene  ",Clc1ccc(Cl)cc1
1824,-5.25,5.04,163.893,"2,4-Dichlorobiphenyl  ",Clc1ccc(-c2ccccc2)c(Cl)c1
1825,-6.56,5.12,163.893,"4,4'-Dichlorobiphenyl  ",Clc1ccc(-c2ccc(Cl)cc2)cc1
1826,-5.27,4.93,163.893,"2,2'-Dichlorobiphenyl  ",Clc1ccccc1-c1ccccc1Cl
1827,-5.24,4.95,163.893,"2,5-Dichlorobiphenyl  ",Clc1ccc(Cl)c(-c2ccccc2)c1
1828,-5.28,5.02,163.893,"2,4'-Dichlorobiphenyl  ",Clc1ccc(-c2ccccc2Cl)cc1
1829,-5.8,5.11,163.893,"3,3'-Dichlorobiphenyl  ",Clc1cccc(-c2cccc(Cl)c2)c1
1830,-6.39,4.99,163.893,"3,4-Dichlorobiphenyl  ",Clc1ccc(-c2ccccc2)cc1Cl
1831,-5.21,4.94,163.893,"2,6-Dichlorobiphenyl  ",Clc1cccc(Cl)c1-c1ccccc1
1832,-2.4,2.6,81.521,"1,1-Dichlorobutane  ",CCCC(Cl)Cl
1833,-2.7,2.11,81.521,"2,3-Dichlorobutane  ",CC(Cl)C(C)Cl
1834,-7.21,5.29,161.418,"2,8-Dichlorodibenzofuran  ",Clc1ccc2oc3ccc(Cl)cc3c2c1
1837,-1.99,2.19,44.953,Dichlorodifluoromethane  ,FC(F)(Cl)Cl
1838,-5.06,4.98,168.2,"2,6-Dichlorodiphenyl ether  ",Clc1cccc(Cl)c1Oc1ccccc1
1839,-5.52,5.19,168.2,"2,4'-Dichlorodiphenyl ether  ",Clc1ccc(Oc2ccccc2Cl)cc1
1840,-1.29,1.53,56.553,"1,1-Dichloroethane  ",CC(Cl)Cl
1841,-1.06,1.41,56.553,"1,2-Dichloroethane  ",ClCCCl
1842,-1.64,1.77,55.897,"1,1-Dichloroethylene  ",C=C(Cl)Cl
1843,-1.3,1.74,55.897,"1,2-Dichloroethylene  ",ClC=CCl
1844,-1.12,2.09,112.16,"2,2'-Dichloroethyl ether  ",ClC(Cl)COCC(Cl)Cl
1845,-0.63,1.19,44.069,Dichloromethane  ,ClCCl
1846,-1.62,2.0,69.03699999999999,"1,3-Dichloropropane  ",ClCCCCl
1847,-1.6,1.76,69.03699999999999,"1,2-Dichloropropane  ",CC(Cl)CCl
1848,-3.46,3.67,131.321,"4,5-Dichloroveratrole  ",COc1cc(Cl)c(Cl)cc1OC
1849,-0.77,0.62,88.771,"1,2-Diethoxyethane  ",CCOCCOCC
1850,-0.43,1.14,88.771,"1,1-Diethoxyethane  ",CCOC(C)OCC
1851,-3.75,4.2,121.343,"1,4-Diethylbenzene  ",CCc1ccc(CC)cc1
1852,-0.09,0.98,59.496,Diethyl ether  ,CCOCC
1853,-2.35,2.7,156.101,Diethyl phthalate  ,CCOC(=O)c1ccccc1C(=O)OCC
1857,-1.1,1.68,84.464,Diisopropyl ether  ,CC(C)OC(C)C
1858,-1.3,1.6,93.229,Diisopropylketone  ,CC(C)C(=O)C(C)C
1859,-2.32,1.77,118.061,"2,5-Dimethoxybenzaldehyde  ",COc1ccc(OC)c(C=O)c1
1860,0.48,-0.27,51.319,Dimethoxymethane  ,COCOC
1861,-1.04,1.57,84.464,"2,2-Dimethyl-1-Butanol  ",CCC(C)(C)CO
1862,-0.5,1.57,84.464,"3,3-Dimethyl-1-Butanol  ",CC(C)(C)CCO
1863,-1.52,2.1,96.948,"2,2-Dimethyl-1-pentanol  ",CCCC(C)(C)CO
1864,-1.6,2.1,96.948,"2,4-Dimethyl-1-pentanol  ",CC(C)CC(C)CO
1865,-1.55,2.1,96.948,"4,4-Dimethyl-1-pentanol  ",CC(C)(C)CCCO
1866,-0.4,2.1,96.948,"2,2-Dimethyl-1-pentanol  ",CCCC(C)(C)CO
1867,-0.62,1.39,84.464,"3,3-Dimethyl-2-Butanol  ",CC(O)C(C)(C)C
1868,-0.41,1.39,84.464,"2,3-Dimethyl-2-Butanol  ",CC(C)C(C)(C)O
1869,-0.92,1.92,96.948,"2,4-Dimethyl-2-pentanol  ",CC(C)CC(C)(C)O
1870,-0.89,1.92,96.948,"2,3-Dimethyl-2-pentanol  ",CCC(C)C(C)(C)O
1871,-1.15,1.92,96.948,"2,2-Dimethyl-3-pentanol  ",CCC(O)C(C)(C)C
1872,-1.22,1.92,96.948,"2,4-Dimethyl-3-pentanol  ",CC(C)C(O)C(C)C
1873,-0.85,1.92,96.948,"2,3-Dimethyl-3-pentanol  ",CCC(C)(O)C(C)C
1874,1.11,-0.75,65.503,"N,N-Dimethylacetamide  ",CC(=O)N(C)C
1875,-2.8,3.14,96.375,"1,2-Dimethylbenzene  ",Cc1ccccc1C
1876,-2.82,3.14,96.375,"1,3-Dimethylbenzene  ",Cc1cccc(C)c1
1877,-2.77,3.14,96.375,"1,4-Dimethylbenzene  ",Cc1ccc(C)cc1
1878,-3.55,3.58,80.157,"2,2-Dimethylbutane  ",CCC(C)(C)C
1879,-0.39,1.57,84.464,"2,3-Dimethylbutanol  ",CC(C)C(C)CO
1880,-4.3,4.37,98.343,"1,2-Dimethylcyclohexane  ",CC1CCCCC1C
1881,-4.14,4.37,138.217,"1,4-Dimethylnaphthalene  ",Cc1ccc(C)c2ccccc12
1882,-4.26,4.11,92.641,"2,4-Dimethylpentane  ",CC(C)CC(C)C
1883,-1.66,1.64,131.13299999999998,Dimethyl phthalate  ,COC(=O)c1ccccc1C(=O)OC
1884,-4.01,2.47,131.13299999999998,Dimethyl terephthalate  ,COC(=O)c1ccc(C(=O)OC)cc1
1885,-2.09,4.03,127.469,"1,4-Dipentadiene  ",C=CC=C(C)C=CC=CC
1886,-3.91,4.21,141.868,Diphenyl ether  ,c1ccc(Oc2ccccc2)cc1
1887,-4.08,4.21,150.045,Diphenylmethane  ,c1ccc(Cc2ccccc2)cc1
1888,-1.62,2.04,84.464,Dipropyl ether  ,CCCOCCC
1889,-1.7,2.5,93.229,Enanthaldehyde  ,CCCCCCC=O
1890,-0.15,0.45,53.396,Epichlorohydrin  ,ClCC1CO1
1891,-2.19,2.14,130.545,4-Ethoxy-3-methoxybenzaldehyde  ,CCOc1ccc(C=O)cc1OC
1892,-1.77,1.72,118.061,3-Ethoxy-4-hydroxybenzaldehyde  ,CCOc1cc(C=O)ccc1O
1893,-1.17,1.75,84.464,2-Ethyl-1-Butanol  ,CCC(CC)CO
1894,-2.11,2.82,109.432,2-Ethyl-1-Hexanol  ,CCCCC(CC)CO
1895,-3.21,3.67,108.859,1-Ethyl-2-methylbenzene  ,CCc1ccccc1C
1896,0.08,1.04,71.98,2-Ehyl-2-propanol  ,CCC(C)(C)O
1897,-0.85,2.1,96.948,3-ethyl-3-pentanol  ,CCC(O)(CC)CC
1898,-3.11,3.67,108.859,1-Ethyl-4-methylbenzene  ,CCc1ccc(C)cc1
1899,-0.04,0.71,60.084,Ethyl acetate  ,CCOC(C)=O
1900,-0.74,1.32,71.91199999999998,Ethyl acrylate  ,C=CC(=O)OCC
1901,-2.32,2.73,113.754,Ethyl benzoate  ,CCOC(=O)c1ccccc1
1902,-1.28,1.77,85.052,Ethyl butyrate  ,CCCC(=O)OCC
1903,-3.39,3.9,134.988,Ethyl caprylate  ,CCCCCCCC(=O)OCC
1904,-1.08,1.41,56.553,Ethylenedichloride  ,ClCCCl
1905,0.08,-1.69,38.835,Ethylene glycol  ,OCCO
1906,0.15,0.3,47.6,Ethyl formate  ,CCOC=O
1907,-2.71,3.37,122.504,Ethyl heptylate  ,CCCCCCC(=O)OCC
1908,-0.55,1.33,71.98,Ethyl isopropyl ether  ,CCOC(C)C
1909,-3.8,4.43,147.472,Ethyl pelargonate  ,CCCCCCCCC(=O)OCC
1910,-0.66,1.24,72.568,Ethyl propionate  ,CCOC(=O)CC
1911,-0.66,1.51,71.98,Ethyl propyl ether  ,CCCOCC
1912,-1.75,2.3,97.536,Ethyl valerate  ,CCCCC(=O)OCC
1913,-0.85,1.04,58.84,Ethyl vinyl ether  ,C=COCC
1914,-5.92,5.17,172.62099999999995,Fluoranthene  ,c1ccc2c(c1)-c1cccc3cccc-2c13
1915,-5.0,4.16,143.263,Fluorene  ,c1ccc2c(c1)Cc1ccccc1-2
1916,-3.13,3.23,106.964,1-Fluoro-4-iodobenzene  ,Fc1ccc(I)cc1
1917,-1.8,2.27,71.84899999999998,Flurobenzene  ,Fc1ccccc1
1918,-0.82,1.38,51.402,Furan  ,c1ccoc1
1919,-0.1,0.73,64.47399999999999,Furfural  ,O=Cc1ccco1
1930,-4.53,4.47,92.641,Heptane  ,CCCCCCC
1931,-1.81,2.47,96.948,1-Heptanol  ,CCCCCCCO
1932,-1.55,2.29,96.948,2-Heptanol  ,CCCCCC(C)O
1933,-1.47,2.29,96.948,3-Heptanol  ,CCCCC(O)CC
1934,-1.4,2.29,96.948,4-Heptanol  ,CCCC(O)CCC
1935,-3.82,3.96,91.985,trans-2-Heptene  ,CC=CCCCC
1936,-3.01,3.12,87.977,1-Heptyne  ,C#CCCCCC
1963,-3.67,4.47,109.217,Hexachloroethane  ,ClC(Cl)(Cl)C(Cl)(Cl)Cl
1964,-2.68,2.8,78.845,"1,5-Hexadiene  ",C=CCCC=C
1965,-3.84,3.94,80.157,Hexane  ,CCCCCC
1966,-1.24,1.94,84.464,1-Hexanol  ,CCCCCCO
1967,-0.89,1.75,84.464,2-Hexanol  ,CCCCC(C)O
1968,-0.8,1.75,84.464,3-Hexanol  ,CCCC(O)CC
1969,-3.23,3.43,79.501,1-Hexene  ,C=CCCCC
1970,-2.46,2.83,110.02,Hexyl acetate  ,CCCCCCOC(C)=O
1971,-5.21,5.34,146.311,Hexyl benzene  ,CCCCCCc1ccccc1
1972,-2.36,2.59,75.493,1-Hexyne  ,C#CCCCC
1974,-0.96,1.39,88.786,p-Hydroxybenzaldehyde  ,O=Cc1ccc(O)cc1
1976,-3.03,3.34,102.077,Indane  ,c1ccc2c(c1)CCC2
1977,-3.04,3.25,106.522,Iodobenzene  ,Ic1ccccc1
1978,-2.96,3.09,90.304,1-Iodobutane  ,CCCCI
1979,-1.6,2.03,65.336,Iodoethane  ,CCI
1980,-1.0,1.5,52.852,Iodomethane  ,CI
1981,-2.29,2.56,77.82,1-Iodopropane  ,CCCI
1982,-2.09,2.38,77.82,2-Iodopropane  ,CC(C)I
1983,-1.21,1.59,85.052,Isobutyl acetate  ,CC(=O)OCC(C)C
1984,-1.01,1.18,72.568,Isobutyl formate  ,CC(C)COC=O
1985,-0.52,1.22,71.98,Isopentanol  ,CC(C)CCO
1986,-0.55,1.06,72.568,Isopropyl acetate  ,CC(=O)OC(C)C
1987,-3.77,4.02,121.343,p-Isopropyltoluene  ,Cc1ccc(C(C)C)cc1
1989,-0.82,0.7,102.431,Malonicaciddiethylester  ,CCOC(=O)CC(=O)OCC
1990,-2.34,3.2,127.618,Menthol  ,CC1CCC(C(C)C)C(O)C1
1991,-1.82,0.7,146.851,Meprobamate  ,CCCC(C)(COC(N)=O)COC(N)=O
1992,-1.53,1.09,17.737000000000005,Methane  ,C
1993,-1.49,1.7,101.27,p-Methoxybenzaldehyde  ,COc1ccc(C=O)cc1
1994,-1.85,2.13,88.198,Methoxybenzene  ,COc1ccccc1
1996,-2.03,2.41,66.361,"2-Methyl-1,3-Butadiene  ",C=CC(=C)C
1997,-0.47,1.22,71.98,2-Methyl-1-Butanol  ,CCC(C)CO
1998,-1.11,1.75,84.464,2-Methyl-1-pentanol  ,CCCC(C)CO
1999,-1.14,1.75,84.464,4-Methyl-1-pentanol  ,CC(C)CCCO
2000,-3.24,3.25,79.501,4-Methyl-1-pentene  ,C=CCC(C)C
2001,-0.2,1.04,71.98,3-Methyl-2-Butanol  ,CC(C)C(C)O
2002,-1.72,2.63,109.432,3-Methyl-2-heptanol  ,CCCCC(C)C(C)O
2003,-1.72,2.63,109.432,2-Methyl-2-heptanol  ,CCCCCC(C)(C)O
2004,-1.38,2.1,96.948,5-Methyl-2-Hexanol  ,CC(C)CCC(C)O
2005,-1.08,2.1,96.948,2-Methyl-2-Hexanol  ,CCCCC(C)(C)O
2006,-0.8,1.57,84.464,4-Methyl-2-pentanol  ,CC(C)CC(C)O
2007,-0.49,1.57,84.464,2-Methyl-2-pentanol  ,CCCC(C)(C)O
2008,-0.72,1.57,84.464,3-Methyl-2-pentanol  ,CCC(C)C(C)O
2009,-1.6,2.63,109.432,3-Methyl-3-heptanol  ,CCCCC(C)(O)CC
2010,-1.0,2.1,96.948,3-Methyl-3-Hexanol  ,CCCC(C)(O)CC
2011,-0.7,1.57,84.464,2-Methyl-3-pentanol  ,CCC(O)C(C)C
2012,-0.38,1.57,84.464,3-Methyl-3-pentanol  ,CCC(C)(O)CC
2013,-0.52,0.18,47.6,Methyl acetate  ,COC(C)=O
2014,-0.22,0.79,59.428,Methyl acrylate  ,C=CC(=O)OC
2015,-5.89,5.14,167.575,9-Methyl anthracene  ,Cc1c2ccccc2cc2ccccc12
2016,-1.85,2.2,101.27,Methyl benzoate  ,COC(=O)c1ccccc1
2017,-0.87,1.15,38.469,Methyl bromide  ,CBr
2018,-0.99,1.539,71.98,Methyl butyl ether  ,CCCOC
2019,-0.8,1.44,80.745,Methyl butylketone  ,CCCCC(C)=O
2020,-0.82,1.24,72.568,Methyl butyrate  ,CCCC(=O)OC
2021,-3.39,3.37,122.504,Methyl caprylate  ,CCCCCCCC(=O)OC
2022,-0.88,0.97,30.903,Methyl chloride  ,CCl
2024,-3.85,3.88,85.859,Methyl cyclohexane  ,CC1CCCCC1
2025,-3.27,3.49,85.20299999999997,Methyl cyclohexene  ,CC1=CCCCC1
2026,-3.3,3.31,73.375,Methyl cyclopentane  ,CC1CCCC1
2027,0.52,0.37,55.777,Methyl ethyl ketone  ,CCC(C)=O
2028,-5.22,4.62,155.747,1-Methyl fluorene  ,Cc1cccc2c1Cc1ccccc1-2
2029,0.58,-0.23,35.116,Methyl formate  ,COC=O
2030,-2.58,3.03,118.197,Methyl heptyl ketone  ,CCCCCCCC(C)=O
2031,-2.05,2.5,105.713,Methyl hexyl ketone  ,CCCCCCC(C)=O
2032,-1.01,1.5,52.852,Methyl iodide  ,CI
2033,-0.74,1.25,80.745,Methyl isobutyl ketone  ,CC(=O)CC(C)C
2034,-0.06,0.8,59.496,Methyl isopropyl ether  ,COC(C)C