Expt,ClogP,Polarizability,Name,smiles
-1.569,0.0015,187.125,None,CC(=O)OCC(COC(C)=O)(COC(C)=O)COC(C)=O
-1.929,0.93,242.85299999999998,None,O=C(NCCCCCCNC(=O)OCCCCO)OCCCCO
-2.9739999999999998,4.33,240.565,None,CCCCS(=O)(=O)C(S(=O)(=O)CCCC)S(=O)(=O)CCCC
-1.712,1.11,143.871,None,C=CCC1(C(C)C)C(=O)NC(=O)NC1=O
-1.449,3.24,154.44299999999998,None,O=C(O)CSSSSCC(=O)O
-4.553999999999999,-3.76,108.305,None,Nc1nc2[nH]c(=O)cnc2c(=O)[nH]1
-2.154,-3.43,111.06299999999999,None,Cc1nc2c(=O)[nH]cnc2[nH]c1=O
-3.052,1.64,135.167,None,CC1(C)OC(=O)c2cc([N+](=O)[O-])ccc21
-4.079,3.68,185.083,None,O=C(O)c1ccc(Cl)c(N=Nc2ccc(O)cc2)c1
-1.929,-0.12,134.792,None,CC(=NNC(=O)c1nccs1)C(=O)O
-3.687,-3.57,102.88600000000001,None,O=c1[nH]c2nc[nH]c(=O)c2[nH]c1=O
-3.125,-3.48,102.88600000000001,None,O=c1cnc2[nH]c(=O)[nH]c(=O)c2[nH]1
-3.302,2.06,163.959,None,Oc1cc2ccccc2cc1C1=NCCN1
-0.35700000000000004,2.27,125.816,None,N#CC(C#N)=NNc1ccccc1
-3.8480000000000003,2.98,171.917,None,O=C(O)c1cccc(N=Nc2ccc(O)cc2)c1
-3.3289999999999997,3.72,171.917,None,O=C(O)c1ccccc1N=Nc1ccc(O)cc1
-3.766,6.19,223.53799999999998,None,CCCCCCCCN(C)N=Nc1ccc(C(=O)O)cc1
-3.855,4.87,185.083,None,O=C(O)c1cc(Cl)ccc1N=Nc1ccc(O)cc1
-2.2640000000000002,0.45,144.208,None,CCc1nc2cnc(=O)[nH]c2nc1CC
-3.3139999999999996,-0.55,136.738,None,CC(=NNC(=O)c1ccncc1)C(=O)O
-3.938,-1.04,106.605,None,Cn1c(=O)[nH]c2c(=O)[nH]c(=O)[nH]c21
-2.077,-0.68,137.796,None,COc1cc(N)c2c(c1OC)C(=O)OC2
-1.155,2.15,98.289,None,O=C(c1ccccc1)C(F)(F)F
-3.96,2.46,139.93,None,Cc1ccc2c([N+](=O)[O-])ccc(O)c2n1
-3.707,3.18,128.96,None,O=[N+]([O-])c1cccc2ccccc12
-2.3280000000000003,1.63,135.964,None,CCOc1ccc(NC(C)=O)cc1
-2.577,3.41,164.372,None,Cc1cc(O)c(C(C)C)cc1C(=O)CCl
-1.484,1.92,141.769,None,CCOc1nc(OCC)nc(OCC)n1
-3.077,4.78,213.22400000000002,None,CCCCCCCCCCNC(=O)c1cccnc1
-3.76,2.4,152.838,None,CNC(=O)Oc1cccc2ccccc12
-3.5460000000000003,4.75,132.685,None,Oc1c(O)c(Cl)c(Cl)c(Cl)c1Cl
-4.357,3.26,145.751,None,COc1ccc([N+](=O)[O-])c2ccccc12
-3.397,3.01,132.67700000000002,None,O=[N+]([O-])OCCCCCCCO[N+](=O)[O-]
-4.723,3.89,158.974,None,O=[N+]([O-])c1ccc2c(c1)Cc1ccccc1-2
-4.02,4.6,145.16899999999998,None,COc1c(O)c(Cl)c(Cl)c(Cl)c1Cl
-4.143,3.54,145.161,None,O=[N+]([O-])OCCCCCCCCO[N+](=O)[O-]
-5.239,4.92,157.653,None,COc1c(Cl)c(Cl)c(Cl)c(Cl)c1OC
-2.256,1.22,159.501,None,Cc1cn(Cc2ccccc2)c(=O)[nH]c1=O
-3.758,3.29,179.757,None,C=CCOC(=O)c1ccccc1C(=O)OCC=C
-3.9210000000000003,2.89,170.81400000000002,None,CNC(=O)Oc1cc(C)c(SC)c(C)c1
-4.0569999999999995,-2.89,107.193,None,O=c1[nH]c(=O)c2[nH]c(=O)c(=O)[nH]c2[nH]1
-3.1639999999999997,1.04,140.518,None,O=C(O)c1ccc([N+](=O)[O-])c2cccnc12
-5.808,6.95,255.97299999999998,None,CCCCCCOC(=O)c1ccccc1C(=O)OCCCCCC
-4.297,3.24,174.421,None,COP(=S)(OC)Oc1ccc([N+](=O)[O-])c(C)c1
-7.361000000000001,8.71,305.909,None,CCCCC(CC)COC(=O)c1ccccc1C(=O)OCC(CC)CCCC
-4.522,3.86,205.143,None,COP(=O)(OC)OC(=CCl)c1cc(Cl)c(Cl)cc1Cl
-0.5539999999999999,-0.6,157.972,None,CCOC(=O)N1CC(C)N(C(N)=O)CC1C
-4.959,4.28,251.218,None,O=[N+]([O-])c1ccc(OP(=O)(Oc2ccccc2)Oc2ccccc2)cc1
-3.216,0.72,132.46,None,O=c1ccc2cc3ccoc3c(O)c2o1
-3.0469999999999997,1.91,161.50799999999998,None,O=C1OC(c2ccc(Br)cc2)C(Br)C1=O
-3.343,0.76,173.84599999999998,None,O=C1NC(=S)SC1=Cc1ccc(O)c(O)c1
-2.167,1.23,162.915,None,O=C1CCCCCN1C(=O)c1ccccc1
-1.474,1.56,104.49700000000001,None,O=C(O)c1ccccc1[N+](=O)[O-]
-2.968,2.3,118.649,None,COC(=O)c1ccc(C(=O)O)cc1
-1.95,1.64,131.13299999999998,None,COC(=O)c1ccccc1C(=O)OC
-2.7739999999999996,2.48,120.193,None,O=[N+]([O-])OCCCCCCO[N+](=O)[O-]
-3.035,1.8,116.98100000000001,None,COC(=O)c1ccc([N+](=O)[O-])cc1
-2.375,2.7,156.101,None,CCOC(=O)c1ccccc1C(=O)OCC
-4.28,4.83,206.037,None,CCCCOC(=O)c1ccccc1C(=O)OCCCC
-1.545,1.27,143.871,None,CC=CCC1(C)C(=O)NC(=O)N(C)C1=O
-5.11,3.69,205.764,None,CC12CCC3c4ccc(O)cc4CCC3C1CCC2=O
-4.118,3.48,219.56,None,CC12CCC(=O)C=C1CCC1C2CCC2(C)C(O)CCC12
-2.059,2.31,168.84599999999998,None,CCOP(=O)(OCC)Oc1ccc([N+](=O)[O-])cc1
-4.422,4.04,240.80900000000003,None,CC(=O)C1CCC2C3CCC4=CC(=O)CCC4(C)C3CCC12C
-0.602,-0.34,118.24700000000001,None,NNC(=O)c1ccc2c(c1)OCO2
-2.616,1.1,122.68299999999999,None,CC1OC(=O)c2cc([N+](=O)[O-])ccc21
-3.855,-3.76,108.305,None,Nc1nc2ncc(=O)[nH]c2c(=O)[nH]1
-1.4069999999999998,0.72,144.915,None,NC(Cc1n[nH]c2ccccc12)C(=O)O
-4.001,4.15,178.46200000000002,None,CCN(CC)c1ccc2c(C)cc(=O)oc2c1
-2.707,-0.43,145.80100000000002,None,Nc1ccc(S(=O)(=O)O)c2ncccc12
-2.5,0.37,145.80100000000002,None,Nc1c(S(=O)(=O)O)ccc2ncccc12
-1.5619999999999998,1.73,122.462,None,COc1ccc(Cl)c(OC)c1O
-1.641,0.69,124.068,None,NC(=O)COC(=O)c1ccccc1
-4.272,3.64,141.444,None,Cc1ccc2ccccc2c1[N+](=O)[O-]
-1.473,0.17,141.925,None,CCC1(CCO)C(=O)NC(=S)NC1=O
-3.6,2.0,144.944,None,COc1c2ccoc2cc2oc(=O)ccc12
-1.694,-0.0312,163.704,None,Nc1ccc(S(=O)(=O)N=C2CC=CN2)cc1
-3.52,1.93,144.944,None,COc1c2occc2cc2ccc(=O)oc12
-4.001,3.24,170.368,None,Cc1cc(=O)n(O)c2ccc3ccccc3c12
-2.237,1.4,149.036,None,CCNC(=O)COC(=O)c1ccccc1
-3.8560000000000003,3.34,157.579,None,O=[N+]([O-])c1ccc(-c2ccccc2)cc1O
-3.9339999999999997,3.53,192.157,None,CCN(CC)C(=O)SCc1ccc(Cl)cc1
-2.0709999999999997,1.74,174.00400000000002,None,CCN(CC)C(=O)COC(=O)c1ccccc1
-2.6839999999999997,2.95,171.558,None,O=C(O)CSC(=S)OCc1ccccc1
-3.319,2.44,170.515,None,O=S(=O)(c1ccccc1O)c1ccccc1O
-5.723,5.23,170.12900000000002,None,CCCCCCCCC(CO[N+](=O)[O-])O[N+](=O)[O-]
-3.307,3.84,206.50799999999998,None,O=C(c1ccccc1)N(O)c1cccc2ccccc12
-2.528,1.71,144.52700000000002,None,CCCC1(CCC)C(=O)NC(=O)NC1=O
-2.215,0.62,134.109,None,Cc1nc2ccc([N+](=O)[O-])cc2c(=O)[nH]1
-3.486,5.89,231.005,None,CCCCCOC(=O)c1ccccc1C(=O)OCCCCC
-2.55,1.63,135.167,None,CCC1OC(=O)c2cc([N+](=O)[O-])ccc21
-2.39,1.52,144.52700000000002,None,CCC(C)C1(CC)C(=O)NC(=O)NC1=O
-2.352,0.0845,181.56,None,NC(=O)CNC(=O)CNC(=O)OCc1ccccc1
-5.266,6.0,269.139,None,CCC(=O)C(CCCCCCOc1ccc(OC)cc1Cl)C(=O)CC
-1.672,1.71,144.52700000000002,None,CCCCC1(CC)C(=O)NC(=O)NC1=O
-2.458,1.14,148.261,None,CC1(c2ccccc2)C(=O)NC(=O)NC1=O
-2.119,1.65,156.355,None,C=CCC1(CC(C)C)C(=O)NC(=O)NC1=O
-1.517,1.09,171.985,None,CCOc1ccc(NC(C)=O)c2cccnc12
-1.345,-0.91,138.384,None,CC(=O)c1c(C)ncc(C(=O)O)c1C(=O)O
-1.7280000000000002,0.2,159.76,None,CC(CCC(=O)O)=NNC(=O)c1nccs1
-2.384,0.59,148.515,None,CCc1nc2[nH]c(=O)[nH]c(=O)c2nc1CC
-1.9080000000000001,1.74,183.88099999999997,None,Cc1c(C(C)C)c(=O)n(-c2ccccc2)n1C
-3.824,3.18,128.96,None,O=[N+]([O-])c1ccc2ccccc2c1
-2.2969999999999997,1.74,129.487,None,CC(=NO)C(=NO)c1ccccc1
-1.19,1.21,134.264,None,Cc1ccccc1OCC(O)CO
-0.7290000000000001,0.57,138.571,None,COc1ccccc1OCC(O)CO
-1.018,-0.02,138.571,None,OCCOc1cccc(OCCO)c1
-2.966,2.59,125.229,None,O=C(O)c1ccc(Br)c([N+](=O)[O-])c1
-2.825,3.61,168.25099999999998,None,CC(=O)CC(C)=NCCN=C(C)CC(C)=O
-1.939,0.22,114.223,None,O=C(NO)c1ccc([N+](=O)[O-])cc1
-2.531,3.04,160.93200000000002,None,CCC(C)c1ccccc1OC(=O)NC
-2.8689999999999998,0.82,126.70700000000001,None,CN(O)C(=O)c1ccc([N+](=O)[O-])cc1
-5.699,4.23,196.043,None,COc1ccc(C=CC(=O)c2ccccc2O)cc1
-2.283,1.84,126.70700000000001,None,CONC(=O)c1ccc([N+](=O)[O-])cc1
-1.515,1.56,159.755,None,Cc1cc(C)nc(Oc2cc(C)n(C)n2)n1
-1.879,0.42,146.278,None,NC(=O)CNC(=O)OCc1ccccc1
-4.737,4.46,206.037,None,CC(C)COC(=O)c1ccccc1C(=O)OCC(C)C
-5.093999999999999,0.96,175.704,None,COc1ccc2[nH]cc(CCNC(C)=O)c2c1
-2.9619999999999997,3.21,145.075,None,O=C(O)COc1cc(Cl)c(Cl)cc1Cl
-6.539,4.56,235.609,None,COc1ccc(C(c2ccc(OC)cc2)C(Cl)(Cl)Cl)cc1
-4.084,3.84,186.905,None,CCOP(=S)(OCC)Oc1ccc([N+](=O)[O-])cc1
-2.68,1.6,220.148,None,CC12CCC3(O)C(CCC4=CC(=O)CCC43C)C1CCC2=O
-5.669,5.0,234.739,None,CCCCOC(=O)c1ccccc1C(=O)OCc1ccccc1
-1.5919999999999999,-0.23,161.70600000000002,None,CC(CCC(=O)O)=NNC(=O)c1ccncc1
-2.31,2.51,132.339,None,CC(=O)Nc1ccc(Cl)cc1C
-3.0810000000000004,1.84,171.917,None,O=C(O)c1ccc(NC(=O)c2cccnc2)cc1
-3.383,2.32,177.33599999999998,None,O=C(NC(=O)c1cccnc1)Nc1ccccc1
-2.1719999999999997,1.83,156.355,None,C=CCC1(CCCC)C(=O)NC(=O)NC1=O
-2.313,1.76,156.355,None,CCC=C(C)C1(CC)C(=O)NC(=O)NC1=O
-2.622,1.05,166.893,None,CC(C)CC1(CCO)C(=O)NC(=S)NC1=O
-0.7659999999999999,-0.38,132.631,None,CCC1(CC(C)=O)C(=O)NC(=O)NC1=O
-3.159,2.76,138.60299999999998,None,CCCOc1ccc([N+](=O)[O-])cc1N
-2.061,2.93,165.83700000000002,None,O=S(=O)(C1CCCCC1)C1CCCCC1
-1.605,0.7,154.409,None,CCCC1(CCO)C(=O)NC(=S)NC1=O
-1.455,2.82,180.56400000000002,None,COc1ccc2cc(CCC(C)=O)ccc2c1
-0.762,1.01,149.036,None,CC(C)(NC(=O)c1ccccc1)C(=O)O
-1.579,1.69,104.939,None,O=C(O)c1ccc(F)c([N+](=O)[O-])c1
-3.484,0.43,141.166,None,COc1cc(C#N)c2c(c1OC)C(=O)OC2
-3.112,1.41,122.956,None,COc1ccc(C(=O)O)cc1C(=O)O
-1.9869999999999999,1.81,122.956,None,COc1cc(C(=O)O)ccc1C(=O)O
-2.334,2.27,180.49599999999998,None,O=C(O)C(=O)C(c1ccccc1)c1ccccc1
-2.6639999999999997,2.05,157.011,None,CCC1(CCC(C)C)C(=O)NC(=O)NC1=O
-3.4810000000000003,2.52,168.668,None,O=C(O)CCC(=O)c1cccc2ccccc12
-2.0140000000000002,0.94,121.288,None,O=C(O)COc1ccccc1[N+](=O)[O-]
-4.127,2.57,184.793,None,Nc1ccc(S(=O)(=O)c2ccc(Cl)cc2)cc1
-2.7310000000000003,1.99,172.31900000000002,None,O=C(O)c1ccccc1C(=O)c1ccc(O)cc1
-2.401,0.51,149.624,None,CC(=O)NC(=O)COC(=O)c1ccccc1
-1.966,-0.7,137.997,None,NC(=O)NS(=O)(=O)c1ccc(N)cc1
-1.185,2.05,174.00400000000002,None,CCOC(=O)C(C)(C)NC(=O)c1ccccc1
-2.668,0.92,153.343,None,CCOC(=O)Oc1ccc(NC(C)=O)cc1
-0.745,-0.26,150.28,None,CC1(C(=O)O)NCCc2cc(O)c(O)cc21
-1.9140000000000001,2.42,167.81,None,CCC(C)(C(=O)O)N1C(=O)c2ccccc2C1=O
-4.398,2.05,168.82299999999998,None,CCOc1ccc2nc(S(N)(=O)=O)sc2c1
-3.53,3.22,199.78099999999998,None,O=C(c1ccccc1I)N(O)c1ccccc1
-2.528,-0.96,139.539,None,NS(=O)(=O)c1ccc(S(N)(=O)=O)cc1
-1.3880000000000001,1.77,187.93400000000003,None,COc1ccc(C(O)C(O)c2ccccc2)cc1
-3.222,1.35,166.415,None,CC(=O)NC(COC(=O)c1ccccc1)C(=O)O
-1.0959999999999999,-0.45,163.069,None,NC(Cc1ccc(O)cc1)C(=O)NCC(=O)O
-0.893,0.64,164.46400000000003,None,COc1ccc(CC2NC(=O)N(C)C2=O)cc1
-2.832,4.36,202.37,None,O=C(O)C(Oc1ccccc1Cl)Oc1ccccc1Cl
-5.906000000000001,4.0,200.702,None,COc1cc(Oc2ccc(Cl)cc2Cl)ccc1[N+](=O)[O-]
-0.7290000000000001,0.29,152.553,None,CCOC(=O)N1CCN(C(=O)OCC)CC1
-1.788,0.12,176.03099999999998,None,CCNC(=S)N1CCN(C(=O)OCC)CC1
-6.542999999999999,3.68,197.207,None,O=C(NC(=O)c1c(F)cccc1F)Nc1ccc(Cl)cc1
-0.46,-1.77,132.69,None,CNC(=S)NC1C(=O)NC(=O)NC1=O
-3.741,4.95,262.651,None,CC(C)CC(NC(=O)OCC1c2ccccc2-c2ccccc21)C(=O)O
-2.517,0.31,237.36,None,CC(=O)NS(=O)(=O)c1ccc(NC(=O)c2ccccc2C(=O)O)cc1
-3.656,2.71,160.135,None,CCC1(CC)OC(=O)c2cc([N+](=O)[O-])ccc21
-2.416,2.27,118.061,None,COC(=O)c1ccc(OC)cc1
-4.156000000000001,4.42,194.65,None,CCCCC(CCCC)(CCCC)C(=O)NO
-3.049,2.61,135.964,None,COC(=O)c1ccc(N(C)C)cc1
-2.14,1.53,122.368,None,COc1cccc(C(=O)O)c1OC
-0.843,-0.4,119.506,None,NS(=O)(=O)c1ccc(NO)cc1
-0.466,2.37,163.733,None,O=S(=O)(O)c1ccc2oc3ccccc3c2c1
-2.727,2.61,164.666,None,O=C(c1ccccc1)N(O)c1ccccc1
-1.4069999999999998,0.78,149.036,None,CC(=O)NC(Cc1ccccc1)C(=O)O
-3.502,2.32,166.351,None,CC(C)c1ccc(NC(=O)N(C)C)cc1
-0.397,1.0,123.544,None,O=C(O)c1ccc(C(=O)O)c(C(=O)O)c1
-0.7440000000000001,2.78,155.231,None,CN(C)C(=O)Nc1ccc(Cl)c(Cl)c1
-1.4680000000000002,-0.22,132.094,None,NC(Cc1ccc(O)c(O)c1)C(=O)O
-1.86,1.61,174.00400000000002,None,CCOC(=O)C(Cc1ccccc1)NC(C)=O
-1.784,2.36,191.31900000000002,None,CCN(CC)CC(=O)Nc1c(C)cccc1C
-3.4739999999999998,2.81,192.98,None,CC(C(=O)O)c1cccc(C(=O)c2ccccc2)c1
-5.275,3.8,165.605,None,Cc1cc2cc3c(C)cc(=O)oc3c(C)c2o1
-3.57,3.24,215.25799999999998,None,CCN(CC)C(=O)C(C)Oc1cccc2ccccc12
-2.97,0.0339,175.532,None,Nc1ccc(S(=O)(=O)Nc2ccccn2)cc1
-3.332,2.6,231.981,None,CCOC(=O)C(Cc1ccc(O)cc1)NC(=O)c1ccccc1
-0.932,0.66,190.167,None,Cc1ccc(S(=O)(=O)NC(CCC(=O)O)C(=O)O)cc1
-1.9069999999999998,1.02,194.798,None,O=C(NC(CO)C(O)c1ccc([N+](=O)[O-])cc1)C(Cl)Cl
-2.312,1.06,196.575,None,CCN(CC)C(=O)Cn1cc(Br)c(=O)c(Br)c1
-3.177,2.04,225.34099999999998,None,CCN(CC)C(=O)Cn1cc(I)c(=O)c(I)c1
-2.199,0.38,175.497,None,O=S(=O)(O)c1cc(I)c(O)c2ncccc12
-2.3569999999999998,2.18,168.83900000000003,None,C=CCC1(C(C)CCC)C(=O)NC(=O)NC1=O
-3.345,4.24,194.65,None,CCCCC(CC)CC(CC)(CC)C(=O)NO
-5.222,4.42,194.65,None,CCCCCCCCC(CC)(CC)C(=O)NO
-4.0,3.87,194.65,None,CC(C)CC(CC(C)C)(CC(C)C)C(=O)NO
-2.824,4.42,194.65,None,CCCCCCC(CCC)(CCC)C(=O)NO
-4.796,4.42,194.65,None,CCCCCCCCCCC(C)(C)C(=O)NO
-1.157,1.16,122.368,None,O=C(OCCO)c1ccccc1O
-1.7830000000000001,0.16,122.368,None,COc1cc(C(=O)CO)ccc1O
-2.169,1.23,166.893,None,CCCCC1(CCO)C(=O)NC(=S)NC1=O
-2.925,0.89,168.011,None,Cc1cc(NS(=O)(=O)c2ccc(N)cc2)no1
-0.679,-0.69,159.63299999999998,None,O=C(O)CC1(O)CC(=O)N(c2ccccc2)C1=O
-3.346,2.82,185.9,None,CCC(CC)(Cc1ccc(C)cc1)C(=O)NO
0.48700000000000004,-1.07,166.93900000000002,None,CN(C)C(=O)c1cccc(C(=O)N(C)C)c1
-0.912,-0.0905,140.859,None,O=C(NC(CO)C(=O)O)c1ccccc1
-3.0060000000000002,3.25,188.74400000000003,None,O=C(O)c1ccccc1C(=O)c1ccc(Br)cc1
-1.766,-1.69,106.75200000000001,None,O=c1[nH]cc(NS(=O)(=O)O)c(=O)[nH]1
-2.886,3.01,185.9,None,CCCC(CCC)(C(=O)NO)c1ccccc1
-3.523,2.68,185.9,None,Cc1cc(C)c(CC(C)(C)C(=O)NO)c(C)c1
-3.2289999999999996,2.71,189.46099999999998,None,CN(CC(=O)O)C(=S)SCc1ccccc1
-2.693,2.15,185.125,None,CCC1(CC)C(=O)N(C)N(c2ccccc2)C1=O
-3.117,2.0,120.7,None,COc1ccc(OC)c([N+](=O)[O-])c1
-3.819,3.76,181.06900000000002,None,CCCOC(=O)c1ccccc1C(=O)OCCC
-8.559,8.01,280.941,None,CCCCCCCOC(=O)c1ccccc1C(=O)OCCCCCCC
-6.369,1.99,265.558,None,CC1CC2C(C(O)CC3(C)C2CCC3(O)C(=O)CO)C2(C)C=CC(=O)C=C12
-2.224,2.13,160.917,None,CCCCCCCCNCC(O)CO
-2.639,2.66,173.40099999999998,None,CCCCCCCCCNCC(O)CO
-3.109,3.19,185.885,None,CCCCCCCCCCNCC(O)CO
-0.9620000000000001,-0.63,131.506,None,CNCC(O)c1ccc(O)c(O)c1
-1.615,0.84,154.455,None,CC(C)(NC(=O)c1ccccc1)C(N)=O
0.508,-1.9,166.93900000000002,None,CN(C)C(=O)c1ccccc1C(=O)N(C)C
-5.059,3.13,192.98,None,O=C(O)CCC(=O)c1ccc(-c2ccccc2)cc1
-3.405,3.14,192.98,None,CCOC(=O)c1ccccc1C(=O)c1ccccc1
-2.557,1.58,179.377,None,CC(C)CCC1(CCO)C(=O)NC(=S)NC1=O
-2.375,1.76,179.377,None,CCCCCC1(CCO)C(=O)NC(=S)NC1=O
-1.791,0.72,165.05200000000002,None,O=C(O)CN1C(=O)NC(=O)C1Cc1ccccc1
0.266,-0.92,166.93900000000002,None,CN(C)C(=O)c1ccc(C(=O)N(C)C)cc1
-4.489,3.79,204.12900000000002,None,CS(=O)(=O)Nc1ccc([N+](=O)[O-])cc1Oc1ccccc1
-2.8680000000000003,0.0854,167.765,None,Nc1ccc(S(=O)(=O)Nc2nncs2)cc1
-2.873,4.0,132.003,None,COc1c(O)cc(Cl)c(Cl)c1Cl
-0.36700000000000005,-1.62,114.48,None,NC(=O)NC1(O)NC(=O)NC1(O)C(=O)O
-3.085,2.11,191.861,None,CCCC(C)CC1(CCO)C(=O)NC(=S)NC1=O
-3.1430000000000002,2.11,191.861,None,CCC(CC)CC1(CCO)C(=O)NC(=S)NC1=O
-0.644,0.34,182.195,None,Cc1ccnc(NS(=O)(=O)c2ccc(N)cc2)n1
-1.811,2.51,210.64700000000002,None,Nc1ccc(S(=O)(=O)Nc2ccc(I)nc2)cc1
-1.5219999999999998,-0.88,178.953,None,Cc1c(NC(N)=O)c(=O)n(-c2ccccc2)n1C
-3.998,2.94,213.79,None,CC12CCC3c4ccc(O)cc4CCC3C1CC(O)C2O
-2.7880000000000003,2.92,215.185,None,CC12C=CC(=O)C=C1CCC1C2CCC2(C)C(=O)CCC12
-3.658,3.92,132.003,None,COc1cc(Cl)c(Cl)c(Cl)c1O
-2.911,1.59,162.05700000000002,None,CN1C(=O)NC(=O)C(C)(C2=CCCCC2)C1=O
-2.102,1.82,144.299,None,CC(=O)C(Oc1ccccc1Cl)C(=O)O
-4.45,0.51,180.24900000000002,None,Cc1nnc(NS(=O)(=O)c2ccc(N)cc2)s1
-2.937,1.94,124.807,None,O=C1C=Cc2ccccc2C1=NO
-4.37,4.33,144.487,None,COc1cc(Cl)c(Cl)c(Cl)c1OC
-3.159,0.86,174.83,None,CC(=O)Nc1ccc2nc(S(N)(=O)=O)sc2c1
-3.903,3.09,235.93400000000003,None,CN1c2ccccc2C(O)(c2ccccc2)c2ccccc21
-1.48,0.0537,135.44,None,O=C(O)c1ccccc1C(=O)OCCO
-1.545,2.15,165.983,None,O=C(O)CSC(CC(=O)O)c1ccccc1
-6.001,4.36,196.043,None,COc1ccc(O)c(C(=O)C=Cc2ccccc2)c1
-3.0010000000000003,2.18,174.541,None,CCC1(C2=CCCCCC2)C(=O)NC(=O)NC1=O
-2.274,0.8,194.679,None,Cc1cc(C)nc(NS(=O)(=O)c2ccc(N)cc2)n1
-2.318,-0.43,194.679,None,Cc1cc(NS(=O)(=O)c2ccc(N)cc2)nc(C)n1
-3.1439999999999997,0.8,194.679,None,Cc1cnc(NS(=O)(=O)c2ccc(N)cc2)nc1C
-3.165,2.76,126.309,None,COC(=O)c1ccc(O)c(Br)c1
-3.1210000000000004,1.04,192.733,None,CCc1nnc(NS(=O)(=O)c2ccc(N)cc2)s1
-1.6440000000000001,1.23,161.52,None,CC(CCC(=O)O)NC(=O)c1ccccc1
-2.825,2.35,232.045,None,O=C(O)c1ccccc1C(=O)OCCOC(=O)c1ccccc1C(=O)O
-1.883,1.01,180.495,None,Cc1noc(NS(=O)(=O)c2ccc(N)cc2)c1C
-1.74,1.36,119.615,None,CC(=O)Nc1ccc(C)cc1F
-1.359,1.93,119.615,None,CC(=O)Nc1ccc(F)cc1C
-3.2089999999999996,0.72,143.781,None,COc1cc([N+](=O)[O-])c2c(c1OC)C(=O)OC2
-2.873,2.48,118.743,None,COC(=O)c1ccc(O)c(Cl)c1
-3.585,0.98,144.72899999999998,None,CC(=O)CC(C)=Nc1ccc(O)cc1
-0.544,0.26,132.094,None,O=C(NCCO)c1cc(O)ccc1O
-3.535,2.6,198.197,None,CCC1(CC)C(=O)N(c2ccccc2)N=C1OC(C)=O
-3.8510000000000004,2.52,168.668,None,O=C(O)CCC(=O)c1ccc2ccccc2c1
-1.598,1.25,126.675,None,COC(=O)c1cc(O)c(OC)c(O)c1
-2.057,0.58,155.929,None,Nc1ccc2c(O)cccc2c1S(=O)(=O)O
0.706,-0.0691,109.884,None,O=C(O)Cc1cc(O)ccc1O
-3.716,0.63,201.088,None,CC(=O)Nc1ccc(S(=O)(=O)Nc2ccccn2)cc1
0.298,1.02,134.748,None,CN(C)c1cccc(S(=O)(=O)O)c1
-2.2880000000000003,0.94,122.956,None,COc1c(C(=O)O)cccc1C(=O)O
-2.536,0.42,151.622,None,Nc1ccc2cccc(S(=O)(=O)O)c2c1
-2.747,0.42,151.622,None,Nc1ccc2c(S(=O)(=O)O)cccc2c1
0.009000000000000001,0.0419,153.343,None,CC(=O)NC(Cc1ccc(O)cc1)C(=O)O
-2.169,-0.55,139.539,None,NS(=O)(=O)c1cccc(S(N)(=O)=O)c1
-3.9419999999999997,3.98,191.176,None,Cc1ccc(S(=O)(=O)Oc2ccccc2C)cc1
-0.731,-0.4,163.069,None,NCC(=O)NC(Cc1ccc(O)cc1)C(=O)O
-4.446000000000001,3.07,207.35,None,COc1cc(NC(=O)c2cccnc2)c2ncccc2c1
-3.553,0.74,144.72899999999998,None,CC(=O)CC(C)=Nc1ccccc1O
-3.2110000000000003,2.22,126.119,None,CCOc1ccc([N+](=O)[O-])cc1N
-3.813,3.99,155.513,None,CCCCCOC(=O)c1ccc(O)cc1
-3.949,4.52,167.997,None,CCCCCCOC(=O)c1ccc(O)cc1
-2.155,-0.84,128.27100000000002,None,NC(=O)c1cccc(S(N)(=O)=O)c1
-3.638,1.75,170.085,None,Nc1ccccc1C=Nc1ccccc1O
-4.073,5.05,180.481,None,CCCCCCCOC(=O)c1ccc(O)cc1
-3.0469999999999997,0.97,129.917,None,COS(=O)(=O)c1ccc(C(=O)O)cc1
-6.042000000000001,4.4,201.46200000000002,None,Nc1ccccc1C(=O)OCC=Cc1ccccc1
-1.413,-0.0842,146.278,None,NC(C(=O)NCC(=O)O)c1ccccc1
-3.8810000000000002,3.81,209.488,None,CCOP(=S)(OCC)Oc1cc(C)nc(C(C)C)n1
-1.886,0.8,209.437,None,CC(=O)CC(C)=Nc1ccc(N=C(C)CC(C)=O)cc1
-3.177,2.39,226.58,None,O=c1[nH]cnc2nc(-c3ccccc3)c(-c3ccccc3)nc12
-3.9130000000000003,3.22,269.099,None,CCCCOc1cc(C(=O)NCCN(CC)CC)c2ccccc2n1
-3.9210000000000003,4.04,243.13099999999997,None,O=C(O)CN(C(=S)SCc1ccccc1)c1ccccc1
-3.4139999999999997,1.39,205.217,None,CC(C)c1nnc(NS(=O)(=O)c2ccc(N)cc2)s1
-3.3080000000000003,1.57,205.217,None,CCCc1nnc(NS(=O)(=O)c2ccc(N)cc2)s1
-2.656,3.19,227.99099999999999,None,COC(=O)C(Cc1ccccc1)NC(=O)C(CC(=O)O)NC(=O)C(F)(F)F
-3.841,0.81,124.807,None,NC1=CC(=O)C(=O)c2ccccc21
-4.2219999999999995,5.58,192.965,None,CCCCCCCCOC(=O)c1ccc(O)cc1
-3.0780000000000003,-0.33,136.93200000000002,None,O=C(O)CCP(=O)(O)c1ccccc1
-4.235,3.03,178.545,None,CC(=O)Nc1ccc2c(c1)Cc1ccccc1-2
-0.985,1.78,135.566,None,CC(=O)Nc1cc(Cl)ccc1[N+](=O)[O-]
-1.492,1.2,161.54399999999998,None,N#CCCNC(Cc1ccccc1)C(=O)O
-4.021,3.3,197.75599999999997,None,CCCN(CCC)S(=O)(=O)c1ccc(C(=O)O)cc1
-3.3139999999999996,3.11,140.692,None,COC(=O)c1ccc(O)c(I)c1
-3.2230000000000003,3.01,131.227,None,CCOC(=O)c1ccc(O)c(Cl)c1
-3.492,3.64,153.17600000000002,None,CCOC(=O)c1ccc(O)c(I)c1
-3.687,4.17,165.66,None,CCCOC(=O)c1ccc(O)c(I)c1
-1.8259999999999998,-0.00909,203.921,None,CCNC(=O)Nc1c(C)n(C)n(-c2ccccc2)c1=O
-2.302,-0.83,128.27100000000002,None,NC(=O)c1ccc(S(N)(=O)=O)cc1
-3.903,4.7,178.144,None,CCCCOC(=O)c1ccc(O)c(I)c1
-3.823,1.92,217.701,None,CC(C)Cc1nnc(NS(=O)(=O)c2ccc(N)cc2)s1
-4.418,3.9,190.31599999999997,None,Cc1ccc(C(=O)N(O)c2ccc(Cl)cc2)cc1
-3.6719999999999997,3.56,190.998,None,O=C(c1ccc(Cl)cc1Cl)N(O)c1ccccc1
-4.1930000000000005,4.51,236.518,None,CCCCOCN(C(=O)CCl)c1c(CC)cccc1CC
-6.005,2.22,257.344,None,O=C(O)c1ccc(P(=O)(c2ccccc2)c2ccc(C(=O)O)cc2)cc1
-3.0789999999999997,0.57,206.13400000000001,None,NS(=O)(=O)c1ccccc1-c1nc2ccccc2c(=O)[nH]1
-4.169,2.33,223.553,None,CC(C)=NNC(=O)NC1c2ccccc2Oc2ccccc21
-1.4080000000000001,-1.75,104.63600000000001,None,NC1C(O)C(O)C(O)C(O)C1O
-2.7230000000000003,1.31,135.89600000000002,None,O=C(O)C=CC(=O)Nc1ccccc1
-4.066,1.29,178.118,None,O=C(O)c1ccc(P(=O)(O)c2ccccc2)cc1
-4.151,1.33,211.62599999999998,None,CC(=O)Nc1ccc(S(=O)(=O)Nc2nc(C)cs2)cc1
-3.0469999999999997,2.92,199.06599999999997,None,CCc1cccc(CC)c1N(COC)C(=O)CCl
-3.6510000000000002,1.57,212.865,None,Nc1ccc(S(=O)(=O)Nc2ncc3c(n2)CCCC3)cc1