,Expt,ClogP,Polarizability,Name,smiles
2349,-6.4060000000000015,3.63,193.875,None,CC(C)(C)CC(C)(C)C1CCC(=NO)C(=NO)C1
2351,-3.943,3.84,206.508,None,O=C(c1cccc2ccccc12)N(O)c1ccccc1
2352,-2.885,2.96,197.734,None,CC(=O)NC(CSc1ccc(Cl)c(Cl)c1)C(=O)O
2353,-2.7030000000000003,1.37,161.989,None,O=C(O)CCNC(=O)Nc1ccc([N+](=O)[O-])cc1
2354,-2.311,3.01,197.734,None,CC(=O)NC(CSc1c(Cl)cccc1Cl)C(=O)O
2355,-1.679,0.95,203.915,None,N#CCCN(CCC#N)C(Cc1ccc(O)cc1)C(=O)O
2356,-5.083,3.98,274.97900000000004,None,CC12CCC(=O)C=C1CCC1C2CCC2(C)C(OC(=O)CCC(=O)O)CCC12
2357,-2.908,2.23,231.206,None,O=C(O)CN1C(=O)N(c2ccccc2)C(=O)C1Cc1ccccc1
2370,-3.551,3.56,157.559,None,CC(Oc1cc(Cl)c(Cl)cc1Cl)C(=O)O
2373,-2.111,1.77,217.531,None,CC(=O)C=C(C)NC1CCCCC1NC(C)=CC(C)=O
2374,-3.102,1.89,232.942,None,OCC(O)C(O)C(O)C=NN(c1ccccc1)c1ccccc1
2375,-4.155,2.88,248.835,None,CC(O)C1(O)CCC2C3CCC4=CC(=O)CCC4(C)C3CCC21C
2376,-4.347,2.88,270.682,None,Cc1ccc(C2(O)CCN(CCCC(=O)c3ccc(F)cc3)CC2)cc1
2377,-3.409,4.69,266.987,None,O=C(O)C(SCCSC(C(=O)O)c1ccccc1)c1ccccc1
2378,-1.469,-0.64,198.351,None,NC(Cc1ccc(O)cc1)C(=O)NCC(=O)NCC(=O)O
2379,-2.3040000000000003,1.21,245.107,None,Cc1c(NC(=O)Nc2ccccc2)c(=O)n(-c2ccccc2)n1C
2380,-1.787,0.52,206.811,None,CCC1(c2ccccc2)C(=O)NC(=O)N(CC(O)CO)C1=O
2384,-5.436,5.07,260.295,None,COc1cc(O)c(CC=C(C)C)c2c1C(=O)CC(c1ccc(O)cc1)O2
2388,-3.51,3.83,151.27700000000004,None,CCCOC(=O)c1ccc(O)c(Br)c1
2389,-3.072,3.02,246.678,None,O=S1(=O)OC(c2ccc(O)cc2)(c2ccc(O)cc2)c2ccccc21
2397,-3.673,4.36,163.761,None,CCCCOC(=O)c1ccc(O)c(Br)c1
2400,-4.096,4.89,176.245,None,CCCCCOC(=O)c1ccc(O)c(Br)c1
2401,-4.223,5.24,190.628,None,CCCCCOC(=O)c1ccc(O)c(I)c1
2408,-4.087,5.14,181.163,None,CCCCCCOC(=O)c1ccc(O)c(Cl)c1
2409,-4.224,5.42,188.729,None,CCCCCCOC(=O)c1ccc(O)c(Br)c1
2410,-4.428,5.77,203.112,None,CCCCCCOC(=O)c1ccc(O)c(I)c1
2412,-3.411,3.86,148.79399999999995,None,COc1c(O)c(OC)c(Cl)c(Cl)c1Cl
2414,-4.228,5.67,193.647,None,CCCCCCCOC(=O)c1ccc(O)c(Cl)c1
2415,-4.419,5.95,201.213,None,CCCCCCCOC(=O)c1ccc(O)c(Br)c1
2416,-4.559,6.3,215.596,None,CCCCCCCOC(=O)c1ccc(O)c(I)c1
2418,-2.285,1.44,170.515,None,O=S(=O)(c1cccc(O)c1)c1ccccc1O
2419,-2.33,0.45,170.515,None,O=S(=O)(c1cccc(O)c1)c1cccc(O)c1
2421,-4.375,6.2,206.131,None,CCCCCCCCOC(=O)c1ccc(O)c(Cl)c1
2422,-4.518,6.48,213.697,None,CCCCCCCCOC(=O)c1ccc(O)c(Br)c1
2423,-4.672,6.83,228.08,None,CCCCCCCCOC(=O)c1ccc(O)c(I)c1
2424,-3.42,3.06,208.11,None,CCN(CC)C(C)C(C)OC(=O)c1ccc(N)cc1
2426,-2.957,3.41,163.134,None,OC(=S)COc1cc(Cl)c(Cl)cc1Cl
2427,-1.523,2.52,186.113,None,CC(=O)OC1C(C2COC(C)(C)O2)OC2OC(C)(C)OC21
2428,-2.41,2.94,193.941,None,O=C(Nc1ccccc1)C(O)COc1ccccc1
2429,-3.369,2.87,193.941,None,CCOc1ccccc1C(=O)N(O)c1ccccc1
2430,-2.351,0.57,216.047,None,NCCNc1ccc(S(=O)(=O)c2ccc(N)cc2)cc1
2432,-1.396,-0.67,178.05599999999995,None,Nc1ccc(S(=O)(=O)NC(CO)(CO)CO)cc1
2433,-3.1,1.23,188.016,None,CNC(=N)NS(=O)(=O)c1ccc2ccccc2c1
2434,-0.56,0.69,184.318,None,CC(C)(NC(=O)c1ccccc1)C(=O)NCC(=O)O
2435,-2.995,3.99,185.083,None,O=C(O)c1c(Cl)cccc1N=Nc1ccc(O)cc1
2436,-1.645,2.74,208.698,None,CCN(CC)CCOC(=O)c1ccc(NC(C)=O)cc1
2437,-2.877,0.79,240.901,None,CCOC(=O)Cc1sc(NS(=O)(=O)c2ccc(N)cc2)nc1C
2438,-4.495,3.25,235.679,None,Cc1ccc2ccccc2c1NS(=O)(=O)c1ccc(N)cc1
2439,-3.097,5.96,229.223,None,Cc1ccc(NC(=O)C(O)(O)C(=O)Nc2ccc(C)cc2)cc1
2440,-2.022,3.58,279.159,None,O=C(O)C(NCCCCCNC(C(=O)O)c1ccccc1)c1ccccc1
2443,-2.403,0.0285,180.269,None,NS(=O)(=O)c1cc(S(=O)(=O)c2ccc(O)cc2)co1
2444,-3.027,0.84,198.328,None,NS(=O)(=O)c1cc(S(=O)(=O)c2ccc(O)cc2)cs1
2445,-3.024,0.53,192.753,None,COc1ccc(S(=O)(=O)c2coc(S(N)(=O)=O)c2)cc1
2446,-4.222,1.34,210.812,None,COc1ccc(S(=O)(=O)c2csc(S(N)(=O)=O)c2)cc1
2447,-2.719,0.15,198.328,None,NS(=O)(=O)c1cc(S(=O)(=O)c2cccc(O)c2)cs1
2448,-2.997,3.19,272.377,None,NC(CCCCNC(=O)OCC1c2ccccc2-c2ccccc21)C(=O)O
2449,-3.092,6.41,244.767,None,CN1CCC(=C2c3ccccc3C=Cc3ccccc32)CC1
2450,-1.159,1.83,266.16700000000003,None,CC(C)CNCc1ccc(S(=O)(=O)c2csc(S(N)(=O)=O)c2)cc1
2454,-2.6060000000000003,0.7,181.957,None,CC1=CC2OC3CC(O)C(C)(C2(CO)CC1)C31CO1
2455,-3.426,2.17,242.098,None,CC(C)(C)n1cc(C(=O)O)c(=O)c2cc(F)c(N3CCNCC3)cc21
2456,-4.002,4.1,261.541,None,CCOP(=O)(Cc1ccc(-c2nc3ccccc3s2)cc1)OCC
2457,-2.125,4.31,213.616,None,CN1CC2c3ccccc3Oc3ccc(Cl)cc3C2C1
2460,-2.1180000000000003,2.86,244.864,None,C#CC1CN2CCC1CC2C(O)c1ccnc2ccc(OC)cc12
2476,-1.386,3.25,219.716,None,OC(c1ccccc1)(c1ccccc1)C1CCNCC1
2477,-1.527,2.41,225.135,None,CN1CCN(C(c2ccccc2)c2ccccc2)CC1
2480,-2.475,3.18,172.80599999999995,None,Nc1c2ccccc2nc2cccc(C(F)(F)F)c12
2481,-2.2430000000000003,6.67,274.385,None,CC(CCNCCNCCC(C)CC(C)(C)C)CC(C)(C)C
2482,-1.545,4.48,221.054,None,OC(CN1CCCCC1)c1ccc(Cl)c2ccccc12
2483,-2.174,3.54,172.80599999999995,None,Nc1c2ccccc2nc2cc(C(F)(F)F)ccc12
2484,-1.6840000000000002,3.85,243.945,None,CCN(CC)CCC(C)(O)c1ccc(OC)c2ccccc12
2486,-1.493,4.86,243.877,None,CCOc1ccc(C(=O)OCCNC(C)c2ccccc2)cc1
2487,-2.196,2.75,221.197,None,Cc1ccccc1NC(=O)C(=O)C(=O)Nc1ccccc1C
2489,-2.682,2.36,257.756,None,O=C(CCCN1CCC(O)(c2ccccc2)CC1)c1ccccc1
2490,-1.619,2.82,270.24,None,Cc1ccc(C2(O)CCN(CCCC(=O)c3ccccc3)CC2)cc1
2491,-1.492,3.16,266.738,None,CN(C)CC1CC2C3CC=C4CC(O)CCC4(C)C3CCC2(C)C1=O
2493,-2.967,2.42,258.198,None,O=C(CCCN1CCC(O)(c2ccc(F)cc2)CC1)c1ccccc1
2494,-2.8710000000000004,2.42,258.198,None,O=C(CCCN1CCC(O)(c2ccccc2)CC1)c1ccc(F)cc1
2495,-3.3510000000000004,2.96,270.922,None,O=C(CCCN1CCC(O)(c2ccc(Cl)cc2)CC1)c1ccccc1
2498,-1.903,3.47,219.716,None,OC(c1ccccc1)(c1ccccc1)C1CCCCN1
2499,-4.631,4.99,316.939,None,Cc1cccc(CN2CCN(C(c3ccccc3)c3ccc(Cl)cc3)CC2)c1
2500,-2.83,2.47,258.64,None,O=C(CCCN1CCC(O)(c2ccc(F)cc2)CC1)c1ccc(F)cc1
2501,-4.22,4.67,278.581,None,CN1CCC23c4c5ccc(OCc6ccccc6)c4OC2CCCC3C1C5
2505,-0.7979999999999999,2.35,198.732,None,Nc1ccc(S(=O)(=O)Nc2ccccc2C(=O)O)cc1
2506,-1.721,2.29,205.413,None,CN1CCC23C=CC=CC2C1Cc1ccc(O)c(O)c13
2507,-1.959,0.79,233.525,None,COCOc1ccc2c3c1OC1C(O)CCC4C(C2)N(C)CCC341
2509,-2.844,4.49,255.281,None,CCN(CC)CC(OC(=O)c1ccc([N+](=O)[O-])cc1)c1ccccc1
2510,-1.301,2.09,241.634,None,COc1ccc2c3c1OC1C(OC(C)=O)C=CC4C(C2)N(C)CCC341
2511,-1.503,3.52,212.862,None,O=C(OCc1ccccc1)C(OS(=O)(=O)O)c1ccccc1
2512,-3.2880000000000003,-1.03,201.805,None,N=C(N)NN=C1C=CC(=NNC(=N)N)c2ccccc21
2513,-2.537,1.22,177.625,None,O=[N+]([O-])c1cc([N+](=O)[O-])c2ccc(S(=O)(=O)O)cc2c1O
2516,-2.988,3.11,224.582,None,COc1ccc(CN(CCN(C)C)c2ncccn2)cc1
2519,-1.749,2.26,242.29,None,COc1ccc2c3c1OC1C(OC(C)=O)CCC4C(C2)N(C)CCC341
2520,-1.414,4.06,287.568,None,CC(C)CCOC(=O)C1CN2CCC1CC2C(O)c1ccnc2ccccc12
2523,-3.755,4.43,209.614,None,CN1CCN=C(c2ccccc2)c2cc(Cl)ccc21
2524,-1.619,5.0,240.95,None,CN(C)CCCOC1(Cc2ccccc2)CCCCCC1
2526,-3.259,2.08,184.096,None,O=C(c1ccccc1)c1ccc2n1CCC2C(=O)O
2527,-2.145,4.83,259.985,None,CCN(CC)C(C)CN1c2ccccc2Sc2ccccc21
2528,-3.728,2.86,285.7340000000001,None,CCOP(=O)(Cc1ccc(-c2nc3ccccc3s2)cc1)N1CCCC1=O
2529,-6.897,3.65,239.693,None,O=C(Nc1ccc(F)cc1F)c1cccnc1Oc1cccc(C(F)(F)F)c1
2530,-4.359,4.54,226.467,None,CCOC(=O)Cc1ccc(-c2nc3ccccc3s2)cc1
2532,-1.76,1.97,235.954,None,CC(C)CC(NC(=O)C(N)Cc1c[nH]c2ccccc12)C(=O)O
2533,-2.603,1.98,242.54,None,CC(C)(CF)n1cc(C(=O)O)c(=O)c2cc(F)c(N3CCNCC3)cc21
2534,-3.648,1.17,228.534,None,O=C(O)c1cn(C2CC2)c2cc(N3CC4CC3CN4)c(F)cc2c1=O
2535,-1.454,1.27,192.711,None,C#CCC(NC(=O)OC(C)(C)C)C(=O)NCC(=O)OC
2536,-5.682,4.83,258.969,None,CCOC(=O)C1=C(C)NC(C)=C(C(=O)OC)C1c1cccc(Cl)c1Cl
2537,-2.454,4.7,233.508,None,O=C(O)C1OC(c2ccccc2)OC1C1COC(c2ccccc2)O1
2538,-1.297,2.92,244.21400000000003,None,Cc1ccc(-c2nc3ccc(C)cn3c2CC(=O)N(C)C)cc1
2540,-3.699,2.7,212.915,None,COC1=CC(=O)CC(C)C12Oc1cc(OC)cc(OC)c1C2=O
2544,-4.397,3.35,199.628,None,CCCCCCCc1ccn(CCC(=O)O)c(=O)c1
2545,-7.223,6.77,255.973,None,CCCCOC(=O)c1ccccc1C(=O)OCC(CC)CCCC
2546,-4.177,3.43,262.801,None,CC1CCC(C(C)C)c2nc(NS(=O)(=O)c3ccc(N)cc3)ncc21
2549,-4.602,4.03,238.565,None,CCOC1=CC(=O)C2(Oc3c(Cl)c(OC)cc(OC)c3C2=O)C(C)C1
2550,-2.64,4.85,311.035,None,CCN(CC)CCCC(C)Nc1c2ccc(Cl)cc2nc2ccc(OC)cc12
2551,-5.223,4.56,251.049,None,CCCOC1=CC(=O)C2(Oc3c(Cl)c(OC)cc(OC)c3C2=O)C(C)C1
2552,-3.567,2.01,229.614,None,CCCn1cc(C(=O)O)c(=O)c2cc(F)c(N3CCNCC3)cc21
2553,-1.6030000000000002,1.19,184.974,None,Cc1ncc(CO)c(C=NC(C(=O)O)C(C)C)c1O
2554,-1.625,1.67,230.572,None,CC1(C)SC2C(NC(=O)Cc3ccccc3)C(=O)N2C1C(=O)O
2556,-2.82,2.52,220.677,None,CN(C)CCOC(C)(c1ccccc1)c1ccccn1
2557,-2.0340000000000003,-0.19,170.618,None,NS(=O)(=O)c1ccc(NC(=O)CCC(=O)O)cc1
2563,-4.449,1.75,195.237,None,Cc1ccc(C(=O)c2csc(S(N)(=O)=O)c2)cc1
2564,-3.494,1.21,160.625,None,O=c1[nH]c(=O)n(Cc2ccc(Cl)cc2)cc1F
2565,-2.861,0.97,187.06,None,NS(=O)(=O)c1cc(C(=O)c2ccc(O)cc2)cs1
2566,-2.7510000000000003,0.53,164.25,None,COc1ccc(Cn2cc(F)c(=O)[nH]c2=O)cc1
2567,-4.473,1.34,199.544,None,COc1ccc(C(=O)c2csc(S(N)(=O)=O)c2)cc1
2568,-5.086,5.02,196.275,None,Cc1cc(=O)oc2c1cc(C)c1oc3c(c12)CCCC3
2569,-4.077,2.93,256.019,None,CC12CCC(c3cnc(NS(=O)(=O)c4ccc(N)cc4)nc31)C2(C)C
2575,-1.067,1.02,204.072,None,CN(C)NC(=N)N1Cc2cccc3cccc(c23)C1
2576,-2.483,1.44,212.837,None,CC(C)=NNC(=N)N1Cc2cccc3cccc(c23)C1
2577,-1.999,2.19,186.851,None,NC(=NO)N1Cc2cccc3c(Cl)ccc(c23)C1
2578,-1.776,1.8,191.788,None,COc1ccc2c3c1CCCC3CN(C(N)=NO)C2
2579,-1.214,1.51,190.476,None,COc1cc2c3c(cccc3c1)CN(C(N)=NO)C2
2580,-5.398,5.09,263.533,None,CCCCOC1=CC(=O)C2(Oc3c(Cl)c(OC)cc(OC)c3C2=O)C(C)C1
2581,-1.832,2.78,245.258,None,NC(=Nc1ccc(N)cc1)N1Cc2cccc3cccc(c23)C1
2582,-1.535,0.73,234.238,None,CN(C)Cc1cc(C(=O)c2csc(S(N)(=O)=O)c2)ccc1O
2583,-2.046,2.0,254.899,None,CC(C)CNCc1ccc(C(=O)c2csc(S(N)(=O)=O)c2)cc1
2585,-3.3710000000000004,2.49,283.601,None,NS(=O)(=O)c1cc(C(=O)c2ccc(CNCc3ccccc3)cc2)cs1
2588,-5.0,4.07,238.565,None,CCOC1=CC(=O)CC(C)C12Oc1c(Cl)c(OC)cc(OC)c1C2=O
2589,-2.635,-1.32,177.715,None,O=C1NCCCC1N1C(=O)c2ccccc2S1(=O)=O
2591,-4.145,4.87,190.207,None,CCCCCCOc1ccc(C(C)=NO)c(O)c1
2593,-4.886,7.0,240.143,None,CCCCCCCCCCOc1ccc(C(C)=NO)c(O)c1
2594,-4.06,7.53,252.627,None,CCCCCCCCCCOc1ccc(C(CC)=NO)c(O)c1
2595,-3.471,6.41,243.877,None,CCCCCCOc1ccc(C(=NO)c2ccccc2)c(O)c1
2596,-4.699,4.6,251.049,None,CCOC1=CC(=O)CC(C)C12Oc1c(Cl)c(OCC)cc(OC)c1C2=O
2597,-4.524,4.6,251.049,None,CCCOC1=CC(=O)CC(C)C12Oc1c(Cl)c(OC)cc(OC)c1C2=O
2599,-3.154,2.34,247.363,None,Cc1ccc(OCC(=O)NC2C(=O)N3C2SC(C)(C)C3C(=O)O)cc1
2600,-3.39,2.36,219.928,None,CNC1=Nc2ccc(Cl)cc2C(c2ccccc2)=[N+]([O-])C1
2606,-3.407,3.51,202.118,None,Cc1cccc(N(O)C(=O)CCc2ccccc2)c1
2607,-2.794,3.51,202.118,None,Cc1ccccc1N(O)C(=O)CCc1ccccc1
2608,-4.699,5.13,263.533,None,CCCCOC1=CC(=O)CC(C)C12Oc1c(Cl)c(OC)cc(OC)c1C2=O
2609,-2.634,2.03,199.677,None,CCCCCCCC(=O)OC1C(O)C(O)OC(CO)C1O
2610,-3.498,2.78,244.203,None,O=S1(=O)OC2(c3cc(O)ccc3Oc3ccc(O)cc32)c2ccccc21
2611,-3.104,2.82,198.248,None,COc1cc(OC)cc(C(=O)N(O)c2ccccc2)c1
2612,-4.472,4.02,203.482,None,Cc1cccc(N(O)C(=O)c2ccc(Cl)cc2Cl)c1
2613,-4.171,4.02,203.482,None,Cc1ccccc1N(O)C(=O)c1ccc(Cl)cc1Cl
2614,-3.645,3.28,210.732,None,COc1cc(OC)cc(C(=O)N(O)c2ccccc2C)c1
2615,-3.613,3.28,210.732,None,COc1cc(OC)cc(C(=O)N(O)c2cccc(C)c2)c1
2616,-1.568,2.36,242.742,None,CN1C2CCC1CC(OC(=O)C(COS(=O)(=O)O)c1ccccc1)C2
2618,-1.815,4.49,246.652,None,OC(CCN1CCCCC1)(c1ccccc1)C1CCCCC1
2628,-2.524,5.13,198.57,None,CCCCCCN(C)N=Nc1ccc(C(=O)O)cc1
2629,-3.385,5.66,211.054,None,CCCCCCCN(C)N=Nc1ccc(C(=O)O)cc1
2630,-5.474,4.67,219.674,None,O=C(c1ccc2ccccc2c1)N(O)c1ccc(Cl)cc1
2631,-2.046,2.0,254.899,None,CC(C)CNCc1cccc(C(=O)c2csc(S(N)(=O)=O)c2)c1
2632,-2.21,2.18,254.899,None,CCCCNCc1ccc(C(=O)c2csc(S(N)(=O)=O)c2)cc1
2633,-1.4980000000000002,2.53,267.383,None,CC(C)CCNCc1cccc(C(=O)c2csc(S(N)(=O)=O)c2)c1
2634,-1.418,2.14,271.69,None,CC(C)CN(C)Cc1cc(C(=O)c2csc(S(N)(=O)=O)c2)ccc1O
2635,-1.975,1.65,266.16700000000003,None,CC(C)(C)NCc1ccc(S(=O)(=O)c2csc(S(N)(=O)=O)c2)cc1
2636,-1.6840000000000002,2.02,266.16700000000003,None,CCCCNCc1ccc(S(=O)(=O)c2csc(S(N)(=O)=O)c2)cc1
2637,-1.5219999999999998,0.24,252.424,None,NS(=O)(=O)c1cc(C(=O)c2ccc(CN3CCOCC3)cc2)cs1
2638,-1.557,1.3,253.683,None,CC(C)NCc1cccc(S(=O)(=O)c2csc(S(N)(=O)=O)c2)c1
2639,-1.327,1.83,266.16700000000003,None,CCC(C)NCc1cccc(S(=O)(=O)c2csc(S(N)(=O)=O)c2)c1
2640,-1.924,0.24,252.424,None,NS(=O)(=O)c1cc(C(=O)c2cccc(CN3CCOCC3)c2)cs1
2641,-1.845,0.93,276.401,None,CNC(=O)c1cccc(NCC(=O)NCCc2ccc(OC)c(OC)c2)c1
2642,-1.041,1.17,172.542,None,CCNCc1cc2cc(S(N)(=O)=O)oc2s1
2643,-1.327,2.05,197.51,None,CC(C)CNCc1cc2cc(S(N)(=O)=O)oc2s1
2644,-0.922,1.27,201.817,None,CCOCCNCc1cc2cc(S(N)(=O)=O)oc2s1
2645,-2.6860000000000004,0.81,263.91700000000003,None,COc1ccc(CCNC(=O)CNc2cccc(C(N)=O)c2)cc1OC
2646,-0.4320000000000001,0.47,229.74400000000003,None,O=C1NC(c2ccccc2)(c2ccccc2)C(=O)N1COP(=O)([O-])O
2647,-1.331,1.05,220.391,None,NS(=O)(=O)c1cc2cc(CNCc3ccccn3)sc2o1
2652,-2.254,-0.53,160.87,None,NS(=O)(=O)c1cc2c(s1)C(O)CCS2
2653,-3.341,2.43,198.972,None,CC(C)N(C(=O)COC(=O)c1ccccc1)C(C)C
2654,-2.594,-0.53,160.87,None,NS(=O)(=O)c1cc2c(s1)SCCC2O
2657,-2.379,2.8,198.972,None,CCCN(CCC)C(=O)COC(=O)c1ccccc1
2658,-1.367,0.89,178.31099999999995,None,CCN(CCO)C(=O)COC(=O)c1ccccc1
2660,-3.294,2.73,204.674,None,CN(C(=O)COC(=O)c1ccccc1)C1CCCCC1
2662,-2.563,2.6,197.66,None,C=CCN(CC=C)C(=O)COC(=O)c1ccccc1
2666,-3.5610000000000004,3.86,223.94,None,CCCCN(CCCC)C(=O)COC(=O)c1ccccc1
2667,0.43,0.0439,182.618,None,O=C(OCC(=O)N(CCO)CCO)c1ccccc1
2668,-1.57,-2.51,158.537,None,NS(=O)(=O)c1cc2c(s1)C(O)CCS2=O
2669,-1.348,-1.04,158.537,None,NS(=O)(=O)c1cc2c(s1)S(=O)CCC2O
2670,-2.679,0.2,158.537,None,NS(=O)(=O)c1cc2c(s1)S(=O)(=O)CCC2
2671,-3.018,-0.17,159.125,None,NS(=O)(=O)c1cc2c(s1)S(=O)(=O)CCC2=O
2672,-3.944,1.82,173.791,None,O=c1[nH]c(=O)n(Cc2ccc(Cl)cc2Cl)cc1F
2673,-1.589,-1.25,162.844,None,NS(=O)(=O)c1cc2c(s1)CC(O)CS2(=O)=O
2674,-1.276,-1.47,162.844,None,NS(=O)(=O)c1cc2c(s1)C(O)CCS2(=O)=O
2675,-1.668,1.98,191.383,None,CCOC(=O)CN(C)C(=O)COC(=O)c1ccccc1
2676,-1.045,0.2,190.02,None,NC(=O)C1CCCN1C(=O)COC(=O)c1ccccc1
2677,-3.671,-0.56,159.125,None,NS(=O)(=O)c1cc2c(s1)C(=O)CCS2(=O)=O
2678,-1.539,-1.05,162.844,None,NS(=O)(=O)c1cc2c(s1)S(=O)(=O)CC(O)C2
2679,-2.942,2.52,293.91,None,CNc1cc(NS(C)(=O)=O)ccc1Nc1c2ccccc2nc2ccccc12
2680,-2.331,1.49,269.73900000000003,None,CN(C(=O)CNC(=O)CN)c1ccc(Cl)cc1C(=O)c1ccccc1Cl
2682,-0.918,0.08,171.834,None,CN(CC(N)=O)C(=O)COC(=O)c1ccccc1
2683,-1.65,-1.27,162.844,None,NS(=O)(=O)c1cc2c(s1)S(=O)(=O)CCC2O
2688,-2.002,4.15,255.773,None,COc1ccccc1CC(C)NC(C)Cc1ccccc1OC
2689,-2.222,2.85,282.232,None,CN1CCC23c4c5ccc(OCc6ccccc6)c4OC2C(O)C=CC3C1C5
2691,-0.82,1.73,228.562,None,CCOc1ccc2c3c1OC1C(O)C=CC4C(C2)N(C)CCC341
2692,-2.48,2.23,222.299,None,O=S(=O)(NS(=O)(=O)c1ccc(Cl)cc1)c1ccc(Cl)cc1
2693,-2.909,0.51,186.07,None,Cc1csc(NS(=O)(=O)c2ccc(N)cc2)n1
2695,-3.0,4.15,255.773,None,COc1cccc(CC(C)NC(C)Cc2ccccc2OC)c1
2696,-1.0,1.39,216.734,None,COc1ccc2c3c1OC1C(O)CCC4C(C2)N(C)CCC341
2700,-1.411,2.09,165.81,None,CC(SC(=S)SC(C)C(=O)O)C(=O)O
2705,-5.324,0.67,210.348,None,NC1CN(c2cc3c(cc2F)c(=O)c(C(=O)O)cn3C2CC2)C1
2706,-5.405,0.9,222.832,None,CNC1CN(c2cc3c(cc2F)c(=O)c(C(=O)O)cn3C2CC2)C1
2707,-5.6160000000000005,1.21,222.832,None,CC1(N)CN(c2cc3c(cc2F)c(=O)c(C(=O)O)cn3C2CC2)C1
2708,-5.332000000000002,1.72,235.998,None,CC1(N)CN(c2c(F)cc3c(=O)c(C(=O)O)cn(C4CC4)c3c2Cl)C1
2709,-4.376,1.81,233.0,None,CC1(N)CN(c2c(F)c(N)c3c(=O)c(C(=O)O)cn(C4CC4)c3c2F)C1
2711,-5.269,1.07,210.79,None,NC1CN(c2c(F)cc3c(=O)c(C(=O)O)cn(C4CC4)c3c2F)C1
2713,-5.6389999999999985,1.61,223.274,None,CC1(N)CN(c2c(F)cc3c(=O)c(C(=O)O)cn(C4CC4)c3c2F)C1
2714,-5.312,1.3,223.274,None,CNC1CN(c2c(F)cc3c(=O)c(C(=O)O)cn(C4CC4)c3c2F)C1
2715,-4.383,0.94,168.398,None,CCn1cc(C(=O)O)c(=O)c2cc3c(cc21)OCO3
2716,-5.48,4.34,209.83900000000003,None,COc1ccc2cc(C(C)C(=O)OC(C)C)ccc2c1
2717,-4.197,3.09,209.064,None,CCOC(=O)C1CCn2c(C(=O)c3ccccc3)ccc21
2718,-3.964,3.57,236.32,None,COc1cc2c(c3c1c(=O)c1cccnc1n3C)C=CC(C)(C)O2
2719,-4.419,2.75,241.833,None,CN1CCN(C2=Nc3ccccc3Oc3ccc(Cl)cc32)CC1
2720,-2.027,0.13,196.885,None,NC(=O)N1c2ccccc2C(O)C(O)c2ccccc21
2721,-2.35,3.1,221.887,None,CCCCCCCCNC(=O)OCC1OC(O)C(O)C(O)C1O
2722,-2.964,3.63,234.371,None,CCCCCCCCCNC(=O)OCC1OC(O)C(O)C(O)C1O
2723,-3.56,4.16,246.855,None,CCCCCCCCCCNC(=O)OCC1OC(O)C(O)C(O)C1O
2724,-5.162000000000001,4.15,258.932,None,Cc1c(OCc2ccccc2)ccc2c(=O)cc(N3CCOCC3)oc12
2725,-4.45,2.66,253.111,None,Cc1c(OCc2ccccn2)ccc2c(=O)cc(N3CCOCC3)oc12
2730,-3.916,3.14,212.939,None,O=C1c2cc(CCCCO)ccc2OCc2ccsc21
2732,-2.715,3.03,181.178,None,O=C(O)c1ccccc1C(=O)c1ccc(Cl)cc1
2737,-2.43,1.26,170.134,None,CCOC(=O)OCOc1ccc(NC(C)=O)cc1
2739,-3.549,1.27,247.997,None,CC(=O)OC1c2ccccc2N(C(N)=O)c2ccccc2C1OC(C)=O
2748,-3.5610000000000004,3.49,223.94,None,CC(C)CN(CC(C)C)C(=O)COC(=O)c1ccccc1
2749,-2.724,3.17,204.674,None,CCC1CCCCN1C(=O)COC(=O)c1ccccc1
2750,-0.8240000000000001,3.14,204.674,None,CC1CCCC(C)N1C(=O)COC(=O)c1ccccc1
2751,-2.542,2.72,192.19,None,O=C(OCC(=O)N1CCCCCC1)c1ccccc1
2752,-3.899,2.93,192.19,None,O=C(COC(=O)c1ccccc1)NC1CCCCC1
2753,-1.349,0.63,184.013,None,O=C(OCC(=O)N1CCC(O)CC1)c1ccccc1
2754,-1.178,0.74,207.586,None,CC(O)CN(CC(C)O)C(=O)COC(=O)c1ccccc1
2756,-1.268,0.37,186.925,None,O=C(COC(=O)c1ccccc1)NC(CO)(CO)CO
2757,-2.717,0.52,171.834,None,CC(NC(=O)COC(=O)c1ccccc1)C(N)=O
2758,-2.694,1.7,170.88099999999997,None,CCCC(=O)OCSc1ncnc2[nH]cnc12
2759,-1.5730000000000002,1.28,207.586,None,COCCN(CCOC)C(=O)COC(=O)c1ccccc1
2760,-3.103,2.23,183.365,None,CCCCC(=O)OCSc1ncnc2[nH]cnc12
2761,-3.622,2.76,195.849,None,CCCCCC(=O)OCSc1ncnc2[nH]cnc12
2762,-2.084,1.28,197.085,None,COC(=O)C1CCCN1C(=O)COC(=O)c1ccccc1
2763,-5.059,4.79,260.312,None,O=C(OCC(=O)N(C1CCCCC1)C1CCCCC1)c1ccccc1
2764,-4.614,3.82,220.817,None,CCCCCCCC(=O)OCSc1ncnc2[nH]cnc12
2765,-5.242000000000001,3.99,197.355,None,CCOC(=O)C(C)c1ccc2cc(OC)ccc2c1
2766,-5.823,4.52,209.83900000000003,None,CCCOC(=O)C(C)c1ccc2cc(OC)ccc2c1
2767,-7.53,5.05,222.323,None,CCCCOC(=O)C(C)c1ccc2cc(OC)ccc2c1
2768,-3.3280000000000003,2.63,201.662,None,COc1ccc2cc(C(C)C(=O)OCCO)ccc2c1
2769,-6.496,4.69,222.323,None,COc1ccc2cc(C(C)C(=O)OC(C)(C)C)ccc2c1
2770,-6.97,5.58,234.807,None,CCCCCOC(=O)C(C)c1ccc2cc(OC)ccc2c1
2771,-3.305,2.98,214.146,None,COc1ccc2cc(C(C)C(=O)OCC(C)O)ccc2c1
2772,-3.395,3.05,214.146,None,COc1ccc2cc(C(C)C(=O)OCCCO)ccc2c1
2773,-7.542999999999998,6.12,247.291,None,CCCCCCOC(=O)C(C)c1ccc2cc(OC)ccc2c1
2774,-7.117000000000001,6.65,259.775,None,CCCCCCCOC(=O)C(C)c1ccc2cc(OC)ccc2c1
2775,-4.648,3.71,210.427,None,COc1ccc2cc(C(C)C(=O)OCC(C)=O)ccc2c1
2776,-7.331,5.16,242.627,None,CCC#CCCOC(=O)C(C)c1ccc2cc(OC)ccc2c1
2777,-2.615,2.01,218.453,None,COc1ccc2cc(C(C)C(=O)OCC(O)CO)ccc2c1
2778,-5.074,3.67,244.816,None,COc1ccc2cc(C(C)C(=O)OC3CCCCC3O)ccc2c1
2779,-3.167,3.61,230.347,None,CCCCCCCC(=O)OC1C(C(O)CO)OC2OC(C)(C)OC21
2780,-5.593,3.63,241.097,None,COc1ccc2cc(C(C)C(=O)OC3CCCCC3=O)ccc2c1
2781,-7.355,5.7,246.635,None,CCC=CCCOC(=O)C(C)c1ccc2cc(OC)ccc2c1
2782,-3.976,2.36,246.648,None,COc1ccc2cc(C(C)C(=O)OC3COC4C(O)COC34)ccc2c1
2783,-4.436,3.82,228.635,None,CCOc1ccc(NC(=O)Nc2ccc(OCC)cc2)cc1
2784,-4.442,4.66,216.864,None,CCCOCC(=Nc1ccc(Cl)cc1C(F)(F)F)n1ccnc1
2787,-4.897,2.75,182.984,None,COC(=O)c1cc2cc3c(C)coc3c(C)c2oc1=O
2788,-3.027,1.79,244.346,None,CN(C)C(=O)COC(=O)C1CCn2c(C(=O)c3ccccc3)ccc21
2789,-6.386,4.6,230.281,None,COC(=O)c1cc(CCc2cc(OC)ccc2OC)ccc1O
2790,-5.091,1.75,198.183,None,C=CCn1cnc2c(=O)[nH]c(Nc3ccccc3)nc21
2791,-3.912,1.69,235.316,None,CCC1C(N)CN1c1cc2c(cc1F)c(=O)c(C(=O)O)cn2C1CC1
2792,-4.573,1.39,235.316,None,CNC1CN(c2cc3c(cc2F)c(=O)c(C(=O)O)cn3C2CC2)C1C
2793,-5.422999999999999,1.7,235.316,None,CC1N(c2cc3c(cc2F)c(=O)c(C(=O)O)cn3C2CC2)CC1(C)N
2794,-4.4830000000000005,1.67,235.998,None,CC1C(N)CN1c1c(F)cc2c(=O)c(C(=O)O)cn(C3CC3)c2c1Cl
2795,-3.984,1.76,233.0,None,CC1C(N)CN1c1c(F)c(N)c2c(=O)c(C(=O)O)cn(C3CC3)c2c1F
2796,-4.442,1.79,235.758,None,CNC1CN(c2c(F)cc3c(=O)c(C(=O)O)cn(C4CC4)c3c2F)C1C
2797,-3.812,2.09,235.758,None,CCC1C(N)CN1c1c(F)cc2c(=O)c(C(=O)O)cn(C3CC3)c2c1F
2798,-5.041,2.1,235.758,None,CC1N(c2c(F)cc3c(=O)c(C(=O)O)cn(C4CC4)c3c2F)CC1(C)N
2799,-4.628,1.16,222.832,None,CC1C(N)CN1c1cc2c(cc1F)c(=O)c(C(=O)O)cn2C1CC1
2800,-4.173,1.56,223.274,None,CC1C(N)CN1c1c(F)cc2c(=O)c(C(=O)O)cn(C3CC3)c2c1F
2801,-4.249,2.66,278.698,None,CC12CCC(=O)C=C1CCC1C2CCC2(C)C(OC(=O)C(CO)CO)CCC12
2802,-2.92,1.92,211.857,None,OCC1OC(n2c(-c3ccco3)nc3ccccc32)C(O)C1O
2803,-2.3280000000000003,2.07,228.648,None,OCC1OC(n2c(-c3ccco3)nc3ccccc32)C(O)C(O)C1O