,Expt,ClogP,Polarizability,Name,smiles
1,-3.33,2.95,130.274,bromoxynil,N#Cc1cc(Br)c(O)c(Br)c1
2,-6.98,5.0,154.335,"1,2,4,5-tetrabromobenzene",Brc1cc(Br)c(Br)cc1Br
3,-6.09,5.07,193.29,bromophos,COP(=S)(OC)Oc1cc(Cl)c(Br)cc1Cl
4,-3.92,3.26,167.104,chlorbromuron,CON(C)C(=O)Nc1ccc(Br)c(Cl)c1
5,-4.5,4.38,133.60299999999998,"1,2,4-tribromobenzene",Brc1ccc(Br)c(Br)c1
6,-5.04,4.22,133.60299999999998,"1,2,3-tribromobenzene",Brc1cccc(Br)c1Br
12,-5.6,4.39,133.60299999999998,"1,3,5-tribromobenzene",Brc1cc(Br)cc(Br)c1
18,-4.45,7.48,371.576,bromadiolone,O=c1oc2ccccc2c(O)c1C(CC(O)c1ccc(-c2ccc(Br)cc2)cc1)c1ccccc1
21,-4.93,5.43,250.647,bromopropylate,CC(C)OC(=O)C(O)(c1ccc(Br)cc1)c1ccc(Br)cc1
26,-3.12,0.9,160.684,brompyrazone,Nc1cnn(-c2ccccc2)c(=O)c1Br
27,-2.52,2.1,151.531,bromacil,CCC(C)n1c(=O)[nH]c(C)c(Br)c1=O
28,-3.14,3.57,100.665,tetrabromomethane,BrC(Br)(Br)Br
29,-2.65,2.56,177.08700000000005,butallylonal,C=C(Br)CC1(C(C)CC)C(=O)NC(=O)NC1=O
31,-8.4,6.2,306.241,deltamethrin,CC1(C)C(C=C(Br)Br)C1C(=O)OC(C#N)c1cccc(Oc2ccccc2)c1
32,-2.28,1.86,154.77700000000004,naled,COP(=O)(OC)OC(Br)C(Cl)(Cl)Br
58,-9.33,7.38,249.523,coronene,c1cc2ccc3ccc4ccc5ccc6ccc1c1c2c3c4c5c61
59,-9.03,6.89,231.993,benzo(ghi)perylene,c1cc2ccc3ccc4ccc5cccc6c(c1)c2c3c4c56
60,-7.8,6.4,214.463,benzo(e)pyrene,c1ccc2c(c1)c1cccc3ccc4cccc2c4c31
61,-8.19,6.4,214.463,benzo(a)pyrene,c1ccc2c(c1)cc1ccc3cccc4ccc2c1c34
63,-7.87,7.14,238.775,picene,c1ccc2c(c1)ccc1c2ccc2c3ccccc3ccc21
64,-8.23,6.4,214.463,benzo(b)fluoranthene,c1ccc2c(c1)-c1cccc3c1c-2cc1ccccc13
65,-8.66,7.14,238.775,"dibenz(a,h)anthracene",c1ccc2c(c1)ccc1cc3c(ccc4ccccc43)cc12
67,-8.0,6.4,214.463,benzo(j)fluoranthene,c1ccc2c3c(ccc2c1)-c1cccc2cccc-3c12
68,-8.8,6.4,214.463,perylene,c1cc2cccc3c4cccc5cccc(c(c1)c23)c54
69,-8.49,6.4,214.463,benzo(k)fluoranthene,c1ccc2cc3c(cc2c1)-c1cccc2cccc-3c12
85,-7.92,7.11,227.603,3-methylcholanthrene,Cc1ccc2c(ccc3c4c5c(cccc5cc32)CC4)c1
86,-7.92,7.11,227.603,3-methylcholanthrene,Cc1ccc2cc3c(ccc4ccccc43)c3c2c1CC3
87,-7.85,6.65,215.11900000000003,cholanthrene,c1cc2c3c(c4ccc5ccccc5c4cc3c1)CC2
130,-8.33,14.57,329.837,hexacosane,CCCCCCCCCCCCCCCCCCCCCCCCCC
131,-8.17,11.38,254.933,eicosane,CCCCCCCCCCCCCCCCCCCC
167,-7.02,6.83,221.901,"7,12-dimethylbenz(a)anthracene",Cc1c2ccccc2c(C)c2c1ccc1ccccc12
169,-7.01,6.83,221.901,"5,6-dimethylchrysene",Cc1c(C)c2c3ccccc3ccc2c2ccccc12
222,-5.26,5.89,228.431,kepone,O=C1C2(Cl)C3(Cl)C4(Cl)C(Cl)(Cl)C5(Cl)C3(Cl)C1(Cl)C5(Cl)C24Cl
223,-6.8,7.42,254.175,mirex,ClC1(Cl)C2(Cl)C3(Cl)C4(Cl)C(Cl)(Cl)C5(Cl)C3(Cl)C1(Cl)C5(Cl)C24Cl
224,-4.61,3.53,226.081,griseofulvin,COC1=CC(=O)CC(C)C12Oc1c(Cl)c(OC)cc(OC)c1C2=O
225,-2.88,-0.33,305.41,chlortetracycline,CN(C)C1C(O)=C(C(N)=O)C(=O)C2(O)C(O)=C3C(=O)c4c(O)ccc(Cl)c4C(C)(O)C3CC12
226,-2.52,-0.87,292.926,demeclocycline,CN(C)C1C(O)=C(C(N)=O)C(=O)C2(O)C(O)=C3C(=O)c4c(O)ccc(Cl)c4C(O)C3CC12
229,-6.29,4.88,203.798,endrin,ClC1=C(Cl)C2(Cl)C3C4CC(C5OC45)C3C1(Cl)C2(Cl)Cl
230,-6.29,5.47,198.778,heptachlor epoxide,ClC1=C(Cl)C2(Cl)C3C4OC4C(Cl)C3C1(Cl)C2(Cl)Cl
231,-7.33,5.32,205.617,aldrin,ClC1=C(Cl)C2(Cl)C3C4C=CC(C4)C3C1(Cl)C2(Cl)Cl
232,-6.86,5.57,214.419,chlordane,ClC1=C(Cl)C2(Cl)C3C(Cl)C(Cl)CC3C1(Cl)C2(Cl)Cl
233,-5.64,5.44,187.431,chlordene,ClC1=C(Cl)C2(Cl)C3CC=CC3C1(Cl)C2(Cl)Cl
234,-6.32,5.46,200.597,heptachlor,ClC1=C(Cl)C2(Cl)C3C(Cl)C=CC3C1(Cl)C2(Cl)Cl
235,-5.46,4.11,191.738,1-hydroxychlordene,OC1C=CC2C1C1(Cl)C(Cl)=C(Cl)C2(Cl)C1(Cl)Cl
236,-5.43,3.39,154.27100000000004,chlorquinox,Clc1c(Cl)c(Cl)c2nccnc2c1Cl
238,-11.62,8.1,269.221,"2,2´,3,3´,4,4´,5,5´,6,6´-PCB",Clc1c(Cl)c(Cl)c(-c2c(Cl)c(Cl)c(Cl)c(Cl)c2Cl)c(Cl)c1Cl
239,-10.26,7.79,256.055,"2,2´,3,3´,4,4´,5,5´,6-PCB",Clc1cc(-c2c(Cl)c(Cl)c(Cl)c(Cl)c2Cl)c(Cl)c(Cl)c1Cl
240,-10.41,7.76,256.055,"2,2´,3,3´,4,5,5´,6,6´-PCB",Clc1cc(Cl)c(Cl)c(-c2c(Cl)c(Cl)c(Cl)c(Cl)c2Cl)c1Cl
241,-7.92,7.1,229.723,"2,2',3,4,4',5',6-PCB",Clc1ccc(-c2c(Cl)c(Cl)c(Cl)c(Cl)c2Cl)c(Cl)c1
242,-8.94,7.01,229.723,"2,2´,3,4,5,5´,6-PCB",Clc1ccc(Cl)c(-c2c(Cl)c(Cl)c(Cl)c(Cl)c2Cl)c1
243,-7.92,6.04,203.391,"2,3,4,5,6-PCB",Clc1c(Cl)c(Cl)c(-c2ccccc2)c(Cl)c1Cl
244,-4.28,4.78,141.54399999999995,pentachlorophenol,Oc1c(Cl)c(Cl)c(Cl)c(Cl)c1Cl
245,-5.64,2.88,150.263,chlorothalonil,N#Cc1c(Cl)c(Cl)c(Cl)c(C#N)c1Cl
246,-4.02,4.6,145.16899999999995,tetrachloroguaiacol,COc1c(O)c(Cl)c(Cl)c(Cl)c1Cl
247,-8.3,7.16,229.723,"2,2´,3,3´,4,4´,6-PCB",Clc1ccc(-c2c(Cl)cc(Cl)c(Cl)c2Cl)c(Cl)c1Cl
248,-7.92,7.21,229.723,"2,2´,3,4,4´,5´,6-PCB",Clc1cc(Cl)c(-c2c(Cl)cc(Cl)c(Cl)c2Cl)cc1Cl
249,-7.43,6.26,203.391,"2,2´,3,4,6-PCB",Clc1ccccc1-c1c(Cl)cc(Cl)c(Cl)c1Cl
250,-7.66,6.79,216.557,"2,3,3´,4,4´6-PCB",Clc1ccc(-c2c(Cl)cc(Cl)c(Cl)c2Cl)cc1Cl
253,-9.16,7.49,242.889,"2,2´,3,3´,4,4´,5,5´-PCB",Clc1cc(-c2cc(Cl)c(Cl)c(Cl)c2Cl)c(Cl)c(Cl)c1Cl
254,-8.42,6.65,216.557,"2,2´,3,3´,4,5-PCB",Clc1cccc(-c2cc(Cl)c(Cl)c(Cl)c2Cl)c1Cl
255,-7.39,6.79,216.557,"2,3',4,4',5-PCB",Clc1ccc(-c2cc(Cl)c(Cl)c(Cl)c2Cl)c(Cl)c1
256,-7.68,6.7,216.557,"2,2´,3,4,5,5´-PCB",Clc1ccc(Cl)c(-c2cc(Cl)c(Cl)c(Cl)c2Cl)c1
257,-7.21,6.21,203.391,"2,2´,3,4,5-PCB",Clc1ccccc1-c1cc(Cl)c(Cl)c(Cl)c1Cl
258,-7.82,6.74,216.557,"2,3,3´,4,4´,5-PCB",Clc1ccc(-c2cc(Cl)c(Cl)c(Cl)c2Cl)cc1Cl
259,-7.16,5.73,190.225,"2,3,4,5-PCB",Clc1cc(-c2ccccc2)c(Cl)c(Cl)c1Cl
262,-8.71,7.1,216.557,"2,2',4,4',6,6'-PCB",Clc1cc(Cl)c(-c2c(Cl)cc(Cl)cc2Cl)c(Cl)c1
263,-7.32,6.51,203.391,"2,2,4,6,6´-PCB",Clc1cc(Cl)c(-c2c(Cl)cccc2Cl)c(Cl)c1
264,-6.14,5.54,177.05900000000003,"2,4,6-PCB",Clc1cc(Cl)c(-c2ccccc2)c(Cl)c1
266,-8.01,6.73,216.557,"2,2´,3,3´,4,4´-PCB",Clc1ccc(-c2ccc(Cl)c(Cl)c2Cl)c(Cl)c1Cl
267,-7.05,6.27,203.391,"1,2,3-trichloro-4-(2,3-dichlorophenyl)benzene",Clc1cccc(-c2ccc(Cl)c(Cl)c2Cl)c1Cl
268,-8.32,6.78,216.557,"2,2´,3,4,4´,5´-PCB",Clc1cc(Cl)c(-c2ccc(Cl)c(Cl)c2Cl)cc1Cl
269,-7.8,6.41,203.391,"2,3',4,4'-PCB",Clc1ccc(-c2ccc(Cl)c(Cl)c2Cl)c(Cl)c1
270,-7.91,6.32,203.391,"2,2´,3,4,5´-PCB",Clc1ccc(Cl)c(-c2ccc(Cl)c(Cl)c2Cl)c1
271,-7.05,6.36,203.391,"2,2´,3,3´,4-PCB",Clc1ccc(-c2ccc(Cl)c(Cl)c2Cl)cc1Cl
274,-6.8,5.92,190.225,"2,2´,5,6´-PCB",Clc1ccc(Cl)c(-c2c(Cl)cccc2Cl)c1
275,-7.39,5.91,190.225,"2,2´,6,6´-PCB",Clc1cccc(Cl)c1-c1c(Cl)cccc1Cl
276,-6.14,5.51,177.05900000000003,"2,4,6-PCB",Clc1ccc(-c2c(Cl)cccc2Cl)cc1
281,-2.62,-0.0707,168.13299999999995,hydrochlorthiazide,NS(=O)(=O)c1cc2c(cc1Cl)NCNS2(=O)=O
282,-3.78,3.25,247.987,metolazone,Cc1ccccc1N1C(=O)c2cc(S(N)(=O)=O)c(Cl)cc2NC1C
283,-3.29,1.78,181.833,quinethazone,CCC1NC(=O)c2cc(S(N)(=O)=O)c(Cl)cc2N1
284,-3.05,-0.22,164.41400000000004,chlorothiazide,NS(=O)(=O)c1cc2c(cc1Cl)N=CNS2(=O)=O
285,-9.15,7.41,242.889,"2,2´,3,3´,5,5´,6,6´-PCB",Clc1cc(Cl)c(Cl)c(-c2c(Cl)c(Cl)cc(Cl)c2Cl)c1Cl
286,-8.6,6.61,216.557,"2,2',3,3',5,6-PCB",Clc1cccc(-c2c(Cl)c(Cl)cc(Cl)c2Cl)c1Cl
287,-7.42,6.66,216.557,"2,2´,3,5,5´,6-PCB",Clc1ccc(Cl)c(-c2c(Cl)c(Cl)cc(Cl)c2Cl)c1
289,-8.56,6.83,216.557,"2,2´,4,4´5,5´-PCB",Clc1cc(Cl)c(-c2cc(Cl)c(Cl)cc2Cl)cc1Cl
290,-7.89,6.38,203.391,"2,2´,4,5,5´-PCB",Clc1ccc(Cl)c(-c2cc(Cl)c(Cl)cc2Cl)c1
291,-7.39,6.42,203.391,"2,3´,4,4´,5-PCB",Clc1ccc(-c2cc(Cl)c(Cl)cc2Cl)cc1Cl
292,-6.27,5.4,177.05900000000003,"2,4,5-PCB",Clc1cc(Cl)c(-c2ccccc2)cc1Cl
294,-4.52,3.86,205.143,stirofos,COP(=O)(OC)OC(=CCl)c1cc(Cl)c(Cl)cc1Cl
295,-2.96,3.21,145.075,"2,4,5-T",O=C(O)COc1cc(Cl)c(Cl)cc1Cl
296,-5.69,4.74,228.248,oxadiazon,CC(C)Oc1cc(-n2nc(C(C)(C)C)oc2=O)c(Cl)cc1Cl
298,-5.75,4.49,206.385,trichloronate,CCOP(=S)(CC)Oc1cc(Cl)c(Cl)cc1Cl
299,-5.72,4.84,185.724,ronnel,COP(=S)(OC)Oc1cc(Cl)c(Cl)cc1Cl
300,-3.18,2.22,218.518,metoclopramide,CCN(CC)CCNC(=O)c1cc(Cl)c(N)cc1OC
301,-3.66,3.0,204.377,furosemide,NS(=O)(=O)c1cc(C(=O)O)c(NCc2ccco2)cc1Cl
303,-3.79,2.5,236.866,xipamide,Cc1cccc(C)c1NC(=O)c1cc(S(N)(=O)=O)c(Cl)cc1O
304,-8.6,6.83,216.557,"2,2´,3,3´,5´,6-PCB",Clc1cc(Cl)c(Cl)c(-c2cc(Cl)c(Cl)cc2Cl)c1
305,-8.71,6.96,216.557,"2,2´,4,4´,6,6´-PCB",Clc1cc(Cl)c(-c2cc(Cl)cc(Cl)c2Cl)c(Cl)c1
311,-3.45,-0.74,217.6,chlorthalidone,NS(=O)(=O)c1cc(C2(O)NC(=O)c3ccccc32)ccc1Cl
312,-7.0,5.92,190.225,"2,2´,5,5´-PCB",Clc1ccc(Cl)c(-c2cc(Cl)ccc2Cl)c1
313,-6.02,5.43,177.05900000000003,"2,2´,5-PCB",Clc1ccc(Cl)c(-c2ccccc2Cl)c1
314,-6.01,5.51,177.05900000000003,"2,3´,5-PCB",Clc1cccc(-c2cc(Cl)ccc2Cl)c1
315,-6.25,5.52,177.05900000000003,"2,4´,5-PCB",Clc1ccc(-c2cc(Cl)ccc2Cl)cc1
316,-3.59,2.09,247.987,indapamide,CC1Cc2ccccc2N1NC(=O)c1ccc(Cl)c(S(N)(=O)=O)c1
318,-8.65,6.65,216.557,"1,2,4-trichloro-3-(2,3,6-trichlorophenyl)benzene",Clc1ccc(Cl)c(-c2c(Cl)ccc(Cl)c2Cl)c1Cl
319,-8.65,6.74,216.557,"2,2´,3,3´,6,6´-PCB",Clc1cc(Cl)c(-c2c(Cl)ccc(Cl)c2Cl)cc1Cl
320,-7.43,6.37,203.391,"2,2',3,4,6-PCB",Clc1ccc(-c2c(Cl)ccc(Cl)c2Cl)c(Cl)c1
321,-6.29,5.31,177.05900000000003,"2,3,6-PCB",Clc1ccc(Cl)c(-c2ccccc2)c1Cl
324,-7.8,6.05,190.225,"2,3´,4,4´-PCB",Clc1ccc(-c2ccc(Cl)c(Cl)c2)c(Cl)c1
325,-7.25,5.96,190.225,"2,3´,4´,5-PCB",Clc1ccc(Cl)c(-c2ccc(Cl)c(Cl)c2)c1
326,-6.29,5.46,177.05900000000003,"2´,3,4-PCB",Clc1ccc(-c2ccccc2Cl)cc1Cl
327,-4.92,3.45,183.345,"3,3´-dichlorobenzidine",Nc1ccc(-c2ccc(N)c(Cl)c2)cc1Cl
329,-6.51,6.1,190.225,"2,2´,4,4´-PCB",Clc1ccc(-c2ccc(Cl)cc2Cl)c(Cl)c1
330,-6.57,6.01,190.225,"2,2´,4,5´-PCB",Clc1ccc(-c2cc(Cl)ccc2Cl)c(Cl)c1
331,-6.21,5.61,177.05900000000003,"2,4,4´-PCB",Clc1ccc(-c2ccc(Cl)cc2Cl)cc1
333,-3.49,3.88,226.885,propiconazole,CCCC1COC(Cn2cncn2)(c2ccc(Cl)cc2Cl)O1
335,-4.46,5.17,185.673,triclosan,Oc1cc(Cl)ccc1Oc1ccc(Cl)cc1Cl
340,-2.82,3.71,153.344,methazole,Cn1c(=O)on(-c2ccc(Cl)c(Cl)c2)c1=O
343,-4.77,4.38,192.683,neburon,CCCCN(C)C(=O)Nc1ccc(Cl)c(Cl)c1
346,-4.33,2.12,230.815,dimefuron,CN(C)C(=O)Nc1ccc(-n2nc(C(C)(C)C)oc2=O)c(Cl)c1
350,-7.28,5.81,190.225,"2,2´,3,3´-PCB",Clc1cccc(-c2cccc(Cl)c2Cl)c1Cl
351,-7.21,6.32,203.391,"2,2',3,4,5-PCB",Clc1cc(Cl)c(-c2cccc(Cl)c2Cl)cc1Cl
352,-6.47,5.87,190.225,"2,2´,3,5´-PCB",Clc1ccc(Cl)c(-c2cccc(Cl)c2Cl)c1
353,-6.26,5.46,177.05900000000003,"2,3,4´-PCB",Clc1ccc(-c2cccc(Cl)c2Cl)cc1
359,-4.08,2.66,240.496,triazolam,Cc1nnc2n1-c1ccc(Cl)cc1C(c1ccccc1Cl)=NC2
360,-3.6,2.47,215.191,lorazepam,O=C1Nc2ccc(Cl)cc2C(c2ccccc2Cl)=NC1O
361,-6.36,6.22,214.537,"o,p'-DDE",ClC(Cl)=C(c1ccc(Cl)cc1)c1ccccc1Cl
365,-4.38,3.23,235.196,fenarimol,OC(c1ccc(Cl)cc1)(c1cncnc1)c1ccccc1Cl
373,-4.18,2.58,190.599,methyl 2-chloro-9-hydroxy-fluorene-9-carboxylate,COC(=O)C1(O)c2ccccc2-c2ccc(Cl)cc21
374,-4.18,1.87,178.115,chlorflurecol-methyl,O=C(O)C1(O)c2ccccc2-c2ccc(Cl)cc21
376,-3.75,2.96,210.202,diazepam,CN1C(=O)CN=C(c2ccccc2)c2cc(Cl)ccc21
377,-5.23,4.28,235.226,phosalone,CCOP(=S)(OCC)SCn1c(=O)oc2cc(Cl)ccc21
378,-5.36,2.93,195.616,RTI 24,CCN1c2cc(Cl)ccc2NC(=O)c2cccnc21
379,-3.95,2.31,202.025,oxazepam,O=C1Nc2ccc(Cl)cc2C(c2ccccc2)=NC1O
381,-4.7,4.08,330.926,thiopropazate,CC(=O)OCCN1CCN(CCCN2c3ccccc3Sc3ccc(Cl)cc32)CC1
382,-4.16,3.54,305.37,perphenazine,OCCN1CCN(CCCN2c3ccccc3Sc3ccc(Cl)cc32)CC1
383,-4.4,3.81,288.579,prochlorperazine,CN1CCN(CCCN2c3ccccc3Sc3ccc(Cl)cc32)CC1
384,-5.01,4.82,248.183,chlorpromazine,CN(C)CCCN1c2ccccc2Sc2ccc(Cl)cc21
385,-4.57,3.49,259.91900000000004,glafenine,O=C(OCC(O)CO)c1ccccc1Nc1ccnc2cc(Cl)ccc12
388,-5.09,3.75,340.27,glyburide,COc1ccc(Cl)cc1C(=O)NCCc1ccc(S(=O)(=O)NC(=O)NC2CCCCC2)cc1
390,-3.95,4.62,184.991,dichlorphen,Oc1ccc(Cl)cc1Cc1cc(Cl)ccc1O
392,-4.8,2.67,182.465,procymidone,CC12CC1(C)C(=O)N(c1cc(Cl)cc(Cl)c1)C2=O
393,-4.38,3.06,209.287,rovral,CC(C)NC(=O)N1CC(=O)N(c2cc(Cl)cc(Cl)c2)C1=O
394,-4.93,3.45,180.414,vinclozolin,C=CC1(C)OC(=O)N(c2cc(Cl)cc(Cl)c2)C1=O
399,-4.53,5.08,235.515,chloropropylate,CC(C)OC(=O)C(O)(c1ccc(Cl)cc1)c1cccc(Cl)c1
409,-5.93,6.17,266.83,"atovaquone(0,430mg/ml) - neutral",O=C1C(O)=C(C2CCC(c3ccc(Cl)cc3)CC2)C(=O)c2ccccc21
410,-6.9,6.37,214.537,"p,p´-DDE",ClC(Cl)=C(c1ccc(Cl)cc1)c1ccc(Cl)cc1
411,-5.91,4.82,251.373,pencycuron,O=C(Nc1ccccc1)N(Cc1ccc(Cl)cc1)C1CCCC1
413,-5.84,4.01,240.467,coumachlor,CC(=O)CC(c1ccc(Cl)cc1)c1c(O)c2ccccc2oc1=O
415,-4.53,5.08,235.515,chloropropylate,CC(C)OC(=O)C(O)(c1ccc(Cl)cc1)c1ccc(Cl)cc1
416,-4.62,3.1,250.193,indomethacin,COc1ccc2c(c1)c(CC(=O)O)c(C)n2C(=O)c1ccc(Cl)cc1
418,-4.43,4.2,250.185,anilofos,COP(=S)(OC)SCC(=O)N(c1ccc(Cl)cc1)C(C)C
424,-4.89,3.2,212.526,chloroxuron,CN(C)C(=O)Nc1ccc(Oc2ccc(Cl)cc2)cc1
427,-3.61,2.77,204.298,triadimefon,CC(C)(C)C(=O)C(Oc1ccc(Cl)cc1)n1cncn1
429,-5.74,5.61,237.269,carbophenothion,CCOP(=S)(OCC)SCSc1ccc(Cl)cc1
430,-3.03,2.3,178.889,chlorpropamide,CCCNC(=O)NS(=O)(=O)c1ccc(Cl)cc1
432,-7.28,13.68,245.565,dienochlor,ClC1=C(Cl)C(Cl)(C2(Cl)C(Cl)=C(Cl)C(Cl)=C2Cl)C(Cl)=C1Cl
433,-5.18,5.16,138.575,hexachlorocyclopentadiene,ClC1=C(Cl)C(Cl)(Cl)C(Cl)=C1Cl
435,-4.51,3.99,152.371,gamma-hexachlorocyclohexane,ClC1C(Cl)C(Cl)C(Cl)C(Cl)C1Cl
436,-4.11,2.05,202.279,RTI 12,CCN1c2ncccc2C(=O)N(C)c2ccc(Cl)nc21
440,-5.67,4.77,204.871,chlorpyriphos,CCOP(=S)(OCC)Oc1nc(Cl)c(Cl)cc1Cl
441,-4.82,3.71,179.903,chlorpyriphos methyl,COP(=S)(OC)Oc1nc(Cl)c(Cl)cc1Cl
442,-4.58,1.45,255.087,chlorimuron ethyl (ph 7),CCOC(=O)c1ccccc1S(=O)(=O)NN(C=O)c1nc(Cl)cc(OC)n1
443,-4.41,4.44,186.43400000000003,chlorazine,CCN(CC)c1nc(Cl)nc(N(CC)CC)n1
450,-1.72,1.76,180.515,azintamide,CCN(CC)C(=O)CSc1ccc(Cl)nn1
451,-3.66,2.99,195.584,isazofos,CCOP(=S)(OCC)Oc1nc(Cl)n(C(C)C)n1
452,-4.95,3.88,282.526,delmadinone acetate,CC(=O)OC1(C(C)=O)CCC2C3C=C(Cl)C4=CC(=O)C=CC4(C)C3CCC21C
453,-5.38,3.86,231.753,coumaphos,CCOP(=S)(OCC)Oc1ccc2c(C)c(Cl)c(=O)oc2c1
454,-5.38,3.94,231.753,coumaphos,CCOP(=S)(OCC)Oc1ccc2oc(=O)c(Cl)c(C)c2c1
457,-4.91,3.98,132.873,hexachlorobutadiene,ClC(Cl)=C(Cl)C(Cl)=C(Cl)Cl
458,-4.88,6.18,201.615,triallate,CC(C)N(C(=O)SCC(Cl)=C(Cl)Cl)C(C)C
464,-6.29,7.15,278.013,permethrin,CC1(C)C(C=C(Cl)Cl)C1C(=O)OCc1cccc(Oc2ccccc2)c1
465,-8.02,6.27,291.1090000000001,cypermethrin,CC1(C)C(C=C(Cl)Cl)C1C(=O)OC(C#N)c1cccc(Oc2ccccc2)c1
468,-1.84,1.1,156.901,chloralose,OCC(O)C1OC2OC(C(Cl)(Cl)Cl)OC2C1O
473,-6.62,5.92,228.359,"o,p'-DDT",Clc1ccc(C(c2ccccc2Cl)C(Cl)(Cl)Cl)cc1
474,-7.15,5.92,228.359,"p,p´-DDT",Clc1ccc(C(c2ccc(Cl)cc2)C(Cl)(Cl)Cl)cc1
475,-6.89,4.56,235.609,methoxychlor,COc1ccc(C(c2ccc(OC)cc2)C(Cl)(Cl)Cl)cc1
477,-4.19,4.61,242.387,triforine,O=CNC(N1CCN(C(NC=O)C(Cl)(Cl)Cl)CC1)C(Cl)(Cl)Cl
478,-4.19,3.81,241.075,triforine,O=CNC(N1C=CN(C(NC=O)C(Cl)(Cl)Cl)C=C1)C(Cl)(Cl)Cl
479,-0.22,0.48,126.479,trichlorfon,COP(=O)(OC)C(O)C(Cl)(Cl)Cl
482,-5.67,5.74,232.666,dicofol,OC(c1ccc(Cl)cc1)(c1ccc(Cl)cc1)C(Cl)(Cl)Cl
483,-5.4,2.4,201.805,captafol,O=C1C2CC=CCC2C(=O)N1SC(Cl)(Cl)C(Cl)Cl
485,-4.37,3.87,170.116,barbane,O=C(Nc1cccc(Cl)c1)OCC#CCCl
501,-6.34,4.7,256.475,dialifos,CCOP(=S)(OCC)SC(CCl)N1C(=O)c2ccccc2C1=O
504,-4.19,4.51,236.518,butachlor,CCCCOCN(C(=O)CCl)c1c(CC)cccc1CC
505,-3.26,2.92,199.066,alachlor,CCc1cccc(CC)c1N(COC)C(=O)CCl
506,-2.73,3.0,211.55,metolachlor,CCc1cccc(C)c1N(C(=O)CCl)C(C)COC
520,-2.68,0.24,206.949,trichlormethiazide,NS(=O)(=O)c1cc2c(cc1Cl)NC(C(Cl)Cl)NS2(=O)=O
523,-5.03,2.5,202.345,quinonamid,O=C(CC(Cl)Cl)NC1=C(Cl)C(=O)c2ccccc2C1=O
525,-6.51,5.39,215.193,"o,p'-DDD",Clc1ccc(C(c2ccccc2Cl)C(Cl)Cl)cc1
526,-7.2,5.39,215.193,"p,p´-DDD",Clc1ccc(C(c2ccc(Cl)cc2)C(Cl)Cl)cc1
530,-5.03,2.45,189.861,quinonamid,O=C1C(Cl)=C(NC(=O)C(Cl)Cl)C(=O)c2ccccc21
531,-2.15,-0.27,215.911,thiamphenicol,CS(=O)(=O)c1ccc(C(O)C(CO)NC(=O)C(Cl)Cl)cc1
533,0.52,0.68,184.709,dimecron,CCN(CC)C(=O)C(Cl)=CCOP(=O)(OC)OC
534,-4.08,5.13,188.449,diallate,CC(C)N(C(=O)SCC(Cl)=CCl)C(C)C
536,-7.28,5.49,211.257,teflubenzuron,O=C(NC(=O)c1c(F)cccc1F)Nc1cc(Cl)c(F)c(Cl)c1F
537,-6.02,3.68,197.207,difluron,O=C(NC(=O)c1c(F)cccc1F)Nc1ccc(Cl)cc1
540,-7.34,6.29,291.551,cyfluthrin,CC1(C)C(C=C(Cl)Cl)C1C(=O)OC(C#N)c1ccc(F)c(Oc2ccccc2)c1
542,-1.8,0.5,193.902,fluconazole,OC(Cn1cncn1)(Cn1cncn1)c1ccc(F)cc1F
543,-3.37,2.31,207.646,flutriafol,OC(Cn1cncn1)(c1ccc(F)cc1)c1ccccc1F
544,-4.32,2.5,288.493,triamcinolone acetonide,CC1(C)OC2CC3C4CCC5=CC(=O)C=CC5(C)C4(F)C(O)CC3(C)C2(C(=O)CO)O1
545,-3.43,1.23,254.172,fludrocortisone,CC12CCC(=O)C=C1CCC1C3CCC(O)(C(=O)CO)C3(C)CC(O)C12F
546,-4.1,2.02,261.693,fluoromethasone,CC(=O)C1(O)CCC2C3CC(C)C4=CC(=O)C=CC4(C)C3(F)C(O)CC21C
547,-4.71,3.78,329.0080000000001,betamethasone-17-valerate,CCCCC(=O)OC1(C(=O)CO)C(C)CC2C3CCC4=CC(=O)C=CC4(C)C3(F)C(O)CC21C
548,-4.9,2.19,291.556,decadronal,CC(=O)OC1(C(=O)CO)C(C)CC2C3CCC4=CC(=O)C=CC4(C)C3(F)C(O)CC21C
549,-4.9,2.96,291.556,dexamethasone-17-acetate,CC(=O)OCC(=O)C1(O)C(C)CC2C3CCC4=CC(=O)C=CC4(C)C3(F)C(O)CC21C
550,-3.64,1.87,266.0,dexamethasone,CC1CC2C3CCC4=CC(=O)C=CC4(C)C3(F)C(O)CC2(C)C1(O)C(=O)CO
551,-5.61,1.61,266.442,flumethasone,CC1CC2C3CC(F)C4=CC(=O)C=CC4(C)C3(F)C(O)CC2(C)C1(O)C(=O)CO
552,-4.13,2.16,308.935,triamcinolone diacetate,CC(=O)OCC(=O)C1(O)C(OC(C)=O)CC2C3CCC4=CC(=O)C=CC4(C)C3(F)C(O)CC21C
553,-3.69,0.83,257.823,triamcinolone,CC12C=CC(=O)C=C1CCC1C3CC(O)C(O)(C(=O)CO)C3(C)CC(O)C12F
556,-4.43,3.01,271.36400000000003,haloperidol,O=C(CCCN1CCC(O)(c2ccc(Cl)cc2)CC1)c1ccc(F)cc1
564,-4.21,3.77,202.923,RTI 13,CCN1c2ncccc2C(=O)Nc2c(C(F)(F)F)cc(C)nc21
565,-3.59,2.07,247.415,bendroflumethiazide,NS(=O)(=O)c1cc2c(cc1C(F)(F)F)NC(Cc1ccccc1)NS2(=O)=O
567,-4.15,4.06,306.014,fluphenazine,OCCN1CCN(CCCN2c3ccccc3Sc3ccc(C(F)(F)F)cc32)CC1
568,-4.52,4.33,289.223,trifluoperazine,CN1CCN(CCCN2c3ccccc3Sc3ccc(C(F)(F)F)cc32)CC1
569,-5.3,5.33,248.827,triflupromazine,CN(C)CCCN1c2ccccc2Sc2ccc(C(F)(F)F)cc21
570,-8.0,7.31,337.619,fluvalinate,CC(C)C(Nc1ccc(C(F)(F)F)cc1Cl)C(=O)OC(C#N)c1cccc(Oc2ccccc2)c1
571,-4.44,3.7,228.495,fluridone,Cn1cc(-c2ccccc2)c(=O)c(-c2cccc(C(F)(F)F)c2)c1
572,-8.4,5.68,269.935,fluotrimazole,FC(F)(F)c1cccc(C(c2ccccc2)(c2ccccc2)n2cncn2)c1
573,-4.05,3.04,177.50099999999995,flurochloridone,O=C1C(Cl)C(CCl)CN1c1cccc(C(F)(F)F)c1
574,-4.04,2.45,179.412,norflurazon,CNc1cnn(-c2cccc(C(F)(F)F)c2)c(=O)c1Cl
576,-4.36,5.62,178.476,flufenamic acid,O=C(O)c1ccccc1Nc1cccc(C(F)(F)F)c1
577,-4.17,4.94,172.655,niflumic acid,O=C(O)c1cccnc1Nc1cccc(C(F)(F)F)c1
581,-7.32,5.78,222.448,tetrafluthrin,Cc1c(F)c(F)c(COC(=O)C2C(C=C(Cl)C(F)(F)F)C2(C)C)c(F)c1F
582,-8.18,6.2,291.753,cyhalothrin,CC1(C)C(C=C(Cl)C(F)(F)F)C1C(=O)OC(C#N)c1cccc(Oc2ccccc2)c1
583,-3.24,3.46,179.533,mefluidide,CC(=O)Nc1cc(NS(=O)(=O)C(F)(F)F)c(C)cc1C
584,-3.8,4.47,222.261,perfluidone,Cc1cc(S(=O)(=O)c2ccccc2)ccc1NS(=O)(=O)C(F)(F)F
585,-4.8,2.89,191.471,RTI 20,O=C1c2ccccc2Cc2ccccc2N1CCF
586,-6.88,6.17,318.592,flucythrinate,CC(C)C(C(=O)OC(C#N)c1cccc(Oc2ccccc2)c1)c1ccc(OC(F)F)cc1
587,-4.55,4.48,148.364,1-Iodonapthalene,Ic1cccc2ccccc12
588,-5.22,5.08,303.593,liothyronine,NC(Cc1cc(I)c(Oc2ccc(O)c(I)c2)c(I)c1)C(=O)O
589,-2.86,2.26,198.017,"3,5-diiodotyrosine",NC(Cc1cc(I)c(O)c(I)c1)C(=O)O
590,-3.61,3.6,159.04,ioxynil,N#Cc1cc(I)c(O)c(I)c1
591,-3.31,4.56,163.32299999999995,"3,5-diiodosalicylic acid",O=C(O)c1cc(I)cc(I)c1O
592,-6.62,5.51,207.673,iodofenphos,COP(=S)(OC)Oc1cc(Cl)c(I)cc1Cl
594,-4.21,3.23,195.474,benodanil,O=C(Nc1ccccc1)c1ccccc1I
598,-4.56,3.95,127.254,p-bromoiodobenzene,Brc1ccc(I)cc1
601,-3.25,2.71,141.804,4-iodoacetanilide,CC(=O)Nc1ccc(I)cc1
603,-3.46,3.85,197.281,"2,3,4,5-tetraiodo-1H-pyrrole",Ic1[nH]c(I)c(I)c1I
609,-2.34,2.3,87.96700000000001,diiodomethane,ICI
612,-3.22,3.06,99.795,"1,2-diiodoethylene",IC=CI
613,-1.32,0.62,289.69,cephaloridine,O=C(Cc1cccs1)NC1C(=O)N2C(C(=O)O)=C(CN3C=C=CC=C3)CSC12
619,-5.54,3.64,261.339,cinmetacin,COc1ccc2c(c1)c(CC(=O)O)c(C)n2C(=O)C=Cc1ccccc1
623,-1.87,1.24,219.141,cepharamine,COc1ccc2c(c1O)C13CCN(C)C1(C=CC(=O)C3)CC2
625,-3.04,0.18,186.757,RTI 3,Cc1ccc2c(c1)Oc1ncc(N)cc1C(=O)N2C
627,-5.4,3.9,209.603,biquinoline,c1ccc2nc(-c3ccc4ccccc4n3)ccc2c1
629,-3.93,0.74,192.578,RTI 11,Cc1ccc2c(c1)C(=O)N(C)c1cc(N)ccc1O2
632,-4.19,4.8,237.61900000000003,imipramine,CN(C)CCCN1c2ccccc2CCc2ccccc21
633,-3.66,4.13,225.135,desipramine,CNCCCN1c2ccccc2CCc2ccccc21
634,-4.75,2.14,200.755,RTI 19,CCN1c2ccccc2C(=O)N(C)c2ccccc21
638,-2.09,1.54,275.248,brucine,COc1cc2c(cc1OC)C13CCN4CC5=CCOC6CC(=O)N2C1C6C5CC43
639,-3.32,1.74,241.666,strychnine,O=C1CC2OCC=C3CN4CCC56c7ccccc7N1C5C2C3CC46
640,-1.52,1.2,216.078,codeine,COc1ccc2c3c1OC1C(O)C=CC4C(C2)N(C)CCC341
641,-3.28,0.43,203.594,morphine,CN1CCC23c4c5ccc(O)c4OC2C(O)C=CC3C1C5
642,-1.87,1.01,219.141,thebainone A,COc1ccc2c(c1O)C13CCN(C)C(C2)C1C=CC(=O)C3
643,-2.82,0.78,240.33900000000003,ajmaline,CCC1C2CC3C4N(C)c5ccccc5C45CC(C2C5O)N3C1O
644,-0.48,0.76,211.62,scopolamine,CN1C2CC(OC(=O)C(CO)c3ccccc3)CC1C1OC12
645,-1.91,1.53,214.095,hyoscyamine,CN1C2CCC1CC(OC(=O)C(CO)c1ccccc1)C2
646,-2.23,3.08,214.683,cocaine,COC(=O)C1C(OC(=O)c2ccccc2)CC2CCC1N2C
648,-4.55,2.47,201.597,RTI 15,CCN1c2ncccc2C(=O)Nc2c(C)cc(C)nc21