Expt,ClogP,Polarizability,Name,smiles
-4.574,2.79,271.328,None,CC12CCC(O)CC1CCC1C2CCC2(C)C(C3=CC(=O)OC3)CCC12O
-3.944,3.82,150.231,None,c1ccc(N=Nc2ccccc2)cc1
-3.945,3.24,154.53799999999998,None,Oc1ccc(N=Nc2ccccc2)cc1
-3.076,2.44,158.845,None,Oc1ccc(N=Nc2ccccc2)c(O)c1
-2.11,-0.58,224.06799999999998,None,O=C1C(O)C2CC3N1CCC31c3ccccc3N3C(=O)C=CC2C31
-4.378,3.29,171.917,None,O=C(O)c1ccc(N=Nc2ccc(O)cc2)cc1
-3.054,3.88,171.917,None,O=C(O)c1cc(N=Nc2ccccc2)ccc1O
-3.1289999999999996,0.72,239.56900000000002,None,OCC(O)C(O)c1nn(-c2ccccc2)c2nc3ccccc3nc12
-2.8110000000000004,1.88,234.87900000000002,None,CC1(C)SC2C(NC(=O)COc3ccccc3)C(=O)N2C1C(=O)O
-2.595,1.89,104.49700000000001,None,O=C(O)c1ccc([N+](=O)[O-])cc1
-2.283,0.88,183.425,None,CC(C)C1OC(O)C(Cc2ccccc2)NC1=O
-2.12,1.42,195.90900000000002,None,CC(C)CC1OC(O)C(Cc2ccccc2)NC1=O
-1.2309999999999999,-0.96,140.755,None,CC(=O)NS(=O)(=O)c1ccc(N)cc1
-2.2880000000000003,-1.3,136.455,None,NNC(=O)c1ccc(C(=O)NN)cc1
-1.6580000000000001,2.18,207.537,None,CC(NC(=O)C(N)c1ccccc1)c1ccccc1
-1.535,0.89,146.909,None,O=c1[nH]c(CN2CCCC2)c(Cl)c(=O)[nH]1
-1.775,1.06,154.475,None,O=c1[nH]c(CN2CCCC2)c(Br)c(=O)[nH]1
-2.647,1.68,226.997,None,CC(=O)OCC1OC(OC(C)=O)C(OC(C)=O)C(OC(C)=O)C1OC(C)=O
-1.59,4.09,215.34,None,CNCCC(Oc1ccc(C(F)(F)F)cc1)c1ccccc1
0.608,-2.65,102.28,None,O=C(O)C(O)(CO)CC(O)CO
-3.3707,0.83,257.823,triamcinolone,CC12C=CC(=O)C=C1CCC1C3CC(O)C(O)(C(=O)CO)C3(C)CC(O)C12F
-3.8032,4.54,233.512,pentazocine,CC(C)=CCN1CCC2(C)c3cc(O)ccc3CC1C2C
-5.507000000000001,4.7,254.636,danazol,C#CC1(O)CCC2C3CCC4=Cc5oncc5CC4(C)C3CCC21C
-3.0461,1.43,253.73,hydrocortisone,CC12CCC(=O)C=C1CCC1C2C(O)CC2(C)C1CCC2(O)C(=O)CO
-3.7945,1.87,266.0,betamethasone,CC1CC2C3CCC4=CC(=O)C=CC4(C)C3(F)C(O)CC2(C)C1(O)C(=O)CO
-4.0718,3.53,226.081,griseofulvin,COC1=CC(=O)CC(C)C12Oc1c(Cl)c(OC)cc(OC)c1C2=O
-3.6402,2.96,210.202,diazepam,CN1C(=O)CN=C(c2ccccc2)c2cc(Cl)ccc21
-4.9073,3.78,329.00800000000004,betamethasone 17-valerate,CCCCC(=O)OC1(C(=O)CO)C(C)CC2C3CCC4=CC(=O)C=CC4(C)C3(F)C(O)CC21C
-1.6405,0.69,124.068,Skeleton = 2,NC(=O)COC(=O)c1ccccc1
-1.2675,0.37,186.925,"Skeleton = 2, R1 = C(CH2OH)3",O=C(COC(=O)c1ccccc1)NC(CO)(CO)CO
-1.3719999999999999,0.67,149.036,"Skeleton = 2, R1 = CH3, R2 = CH3",CN(C)C(=O)COC(=O)c1ccccc1
-2.5625,2.6,197.66,"Skeleton = 2, R1 = CH2CH=CH2, R2 = CH2CH=CH2",C=CCN(CC=C)C(=O)COC(=O)c1ccccc1
-1.7178,0.87,136.55200000000002,"Skeleton = 2, R1 = CH3",CNC(=O)COC(=O)c1ccccc1
-0.9184,0.08,171.834,"Skeleton = 2, R1 = CH3, R2 = CH2CONH2",CN(CC(N)=O)C(=O)COC(=O)c1ccccc1
-1.0897,0.36,165.827,"Skeleton = 2, R1 = CH3, R2 = CH2CH2OH",CN(CCO)C(=O)COC(=O)c1ccccc1
-1.5732,1.28,207.58599999999998,"Skeleton = 2, R1 = CH2CH2OCH3, R2 = CH2CH2OCH3",COCCN(CCOC)C(=O)COC(=O)c1ccccc1
-2.254,0.67,166.415,"Skeleton = 2, R1 = CH3, R2 = CH2COOH",CN(CC(=O)O)C(=O)COC(=O)c1ccccc1
-1.6679,1.98,191.38299999999998,"Skeleton = 2, R1 = CH3, R2 = CH2COOC2H5",CCOC(=O)CN(C)C(=O)COC(=O)c1ccccc1
-2.2373,1.4,149.036,"Skeleton = 2, R1 = C2H5",CCNC(=O)COC(=O)c1ccccc1
-1.6085,1.02,154.738,"Skeleton = 2, NR1R2 = azetidine",O=C(OCC(=O)N1CCC1)c1ccccc1
-1.5685,1.59,167.222,"Skeleton = 2, NR1R2 = pyrrolidine",O=C(OCC(=O)N1CCCC1)c1ccccc1
-2.5011,2.15,179.706,"Skeleton = 2, NR1R2 = piperidine",O=C(OCC(=O)N1CCCCC1)c1ccccc1
-1.7734,1.1,171.52900000000002,"Skeleton = 2, NR1R2 = morpholine",O=C(OCC(=O)N1CCOCC1)c1ccccc1
-2.7239,3.17,204.674,"Skeleton = 2, NR1R2 = 2-ethylpiperidine",CCC1CCCCN1C(=O)COC(=O)c1ccccc1
-3.2638,3.14,204.674,"Skeleton = 2, NR1R2 = 2,6-dimethylpiperidine",CC1CCCC(C)N1C(=O)COC(=O)c1ccccc1
-1.3486,0.63,184.013,"Skeleton = 2, NR1R2 = piperidin-4-ol",O=C(OCC(=O)N1CCC(O)CC1)c1ccccc1
-2.5387,1.93,161.52,"Skeleton = 2, R1 = n-C3H7",CCCNC(=O)COC(=O)c1ccccc1
-2.1416,0.56,172.11700000000002,"Skeleton = 2, NR1R2 = azetidine-2-carboxylic acid",O=C(OCC(=O)N1CCC1C(=O)O)c1ccccc1
-2.0841,1.28,197.085,"Skeleton = 2, NR1R2 = methyl pyrrolidine-2-carboxylate",COC(=O)C1CCCN1C(=O)COC(=O)c1ccccc1
-2.2653,0.2,190.02,"Skeleton = 2, NR1R2 = pyrrolidine-2-carboxamide ",NC(=O)C1CCCN1C(=O)COC(=O)c1ccccc1
-2.7321,1.75,161.52,"Skeleton = 2, R1 = i-C3H7",CC(C)NC(=O)COC(=O)c1ccccc1
-2.2828,2.08,186.488,"Skeleton = 3, R = CH(CH3)CON(C2H5)2",CCN(CC)C(=O)C(C)OC(=O)c1ccccc1
-2.4003,0.51,149.624,"Skeleton = 3, R = CH2CONHCOCH3",CC(=O)NC(=O)COC(=O)c1ccccc1
-2.8664,1.27,162.108,"Skeleton = 3, R = CH2CON(CH3)COCH3",CC(=O)N(C)C(=O)COC(=O)c1ccccc1
-2.7588,2.46,174.00400000000002,"Skeleton = 2, R1 = C4H9",CCCCNC(=O)COC(=O)c1ccccc1
-2.8664,2.1,174.00400000000002,"Skeleton = 2, R1 = t-C4H9",CC(C)(C)NC(=O)COC(=O)c1ccccc1
-1.4983,0.17,159.35,"Skeleton = 2, R1 = CH2CONH2",NC(=O)CNC(=O)COC(=O)c1ccccc1
-4.4685,1.34,205.65,"Skeleton = 1, R = H ",O=C1NC(c2ccccc2)(c2ccccc2)C(=O)N1CO
-4.9066,2.24,231.206,"Skeleton = 1, R = CH3CO",CC(=O)OCN1C(=O)NC(c2ccccc2)(c2ccccc2)C1=O
-5.0706,2.77,243.69,"Skeleton = 1, R = C2H5CO",CCC(=O)OCN1C(=O)NC(c2ccccc2)(c2ccccc2)C1=O
-4.6778,3.3,256.17400000000004,"Skeleton = 1, R = C3H7CO",CCCC(=O)OCN1C(=O)NC(c2ccccc2)(c2ccccc2)C1=O
-5.8861,3.83,268.658,"Skeleton = 1, R = C4H9CO",CCCCC(=O)OCN1C(=O)NC(c2ccccc2)(c2ccccc2)C1=O
-0.3098,0.2,82.294,L-valine,CC(C)C(N)C(=O)O
-1.7612,1.97,235.954,L-tryptophyl-L-leucine,CC(C)CC(NC(=O)C(N)Cc1c[nH]c2ccccc12)C(=O)O
-0.7326,-0.4,163.069,glycyl-L-tyrosine,NCC(=O)NC(Cc1ccc(O)cc1)C(=O)O
-1.0983,-0.45,163.069,L-tyrosylglycine,NC(Cc1ccc(O)cc1)C(=O)NCC(=O)O
-2.0709,1.31,213.005,L-tyrosyl-L-leucine,CC(C)CC(NC(=O)C(N)Cc1ccc(O)cc1)C(=O)O
-1.4703,-0.64,198.351,L-tyrosylglycylglycine,NC(Cc1ccc(O)cc1)C(=O)NCC(=O)NCC(=O)O
-1.5768,1.36,213.005,L-leucyl-L-tyrosine,CC(C)CC(N)C(=O)NC(Cc1ccc(O)cc1)C(=O)O
-0.4056,0.6,155.028,L-valyl-L-valine,CC(C)C(N)C(=O)NC(C(=O)O)C(C)C
-0.1748,1.13,167.512,L-leucyl-L-valine,CC(C)CC(N)C(=O)NC(C(=O)O)C(C)C
-0.4333,-0.0934,130.06,glycyl-L-leucine,CC(C)CC(NC(=O)CN)C(=O)O
-0.1132,-0.28,165.342,glycylglycyl-L-leucine,CC(C)CC(NC(=O)CNC(=O)CN)C(=O)O
0.3076,-0.28,165.342,L-leucylglycyl-glycine,CC(C)CC(N)C(=O)NCC(=O)NCC(=O)O
-1.8856,0.26,186.018,glycyl-L-tryptophan,NCC(=O)NC(Cc1c[nH]c2ccccc12)C(=O)O
-0.8466,0.21,186.018,L-tryptophylglycine,NC(Cc1c[nH]c2ccccc12)C(=O)NCC(=O)O
-1.1178,2.02,235.954,L-leucyl-L-tryptophan,CC(C)CC(N)C(=O)NC(Cc1c[nH]c2ccccc12)C(=O)O
-1.2219,0.1,205.715,dorzolamide,CCNC1CC(C)S(=O)(=O)c2sc(S(N)(=O)=O)cc21
-1.2219,-0.67,74.705,ASP,NC(CC(=O)O)C(=O)O
-1.2924,-1.51,80.124,ASN,NC(=O)CC(N)C(=O)O
-2.4949,-0.26,127.167,acetazolamide,CC(=O)Nc1nnc(S(N)(=O)=O)s1
-1.9208,0.13,139.651,methazolamide,CC(=O)N=c1sc(S(N)(=O)=O)nn1C
-4.3979,2.05,168.82299999999998,ethoxzolamide,CCOc1ccc2nc(S(N)(=O)=O)sc2c1
-2.9208,0.2,192.105,benzolamide,NS(=O)(=O)c1nnc(NS(=O)(=O)c2ccccc2)s1
-1.2676,0.94,110.99600000000001,alpha-benzenyl-glycine,NC(C(=O)O)c1ccccc1
-1.1367,-1.58,61.633,serine,NC(CO)C(=O)O
-1.3188,0.39,127.787,beta-benzenyl-serine,NC(C(=O)O)C(O)c1ccccc1
-1.1871,0.24,79.692,cys,NC(CS)C(=O)O
-1.4949,1.88,105.57700000000001,methylparaben,Cc1cc(O)ccc1C(=O)O
-1.9586,2.41,118.061,ethylparaben,CCc1cc(O)ccc1C(=O)O
-2.3979,2.94,130.545,propylparaben,CCCc1cc(O)ccc1C(=O)O
-2.8239,3.47,143.029,butylparaben,CCCCc1cc(O)ccc1C(=O)O
-2.5918,2.61,295.557,ursocholic acid,CC(CCC(=O)O)C1CCC2C3C(O)CC4CC(O)CCC4(C)C3CC(O)C12C
-4.3468,3.82,295.557,hyocholic acid,CC(CCC(=O)O)C1CCC2C3C(O)C(O)C4CC(O)CCC4(C)C3CCC12C
-4.8239,5.0,291.25,hyodeoxycholic acid,CC(CCC(=O)O)C1CCC2C3CC(O)C4CC(O)CCC4(C)C3CCC12C
-4.5686,4.66,291.25,chenodeoxycholic acid,CC(CCC(=O)O)C1CCC2C3C(O)CC4CC(O)CCC4(C)C3CCC12C
-4.5528,4.66,291.25,deoxycholic acid,CC(CCC(=O)O)C1CCC2C3CCC4CC(O)CCC4(C)C3CC(O)C12C
0.58,-0.0299,127.199,phenylephrine,CNCC(O)c1cccc(O)c1
0.38,2.29,205.75400000000002,oxprenolol,C=CCOc1ccccc1OCC(O)CNC(C)C
0.14,0.25,156.474,isoproterenol,CC(C)NCC(O)c1ccc(O)c(O)c1
0.04,0.0965,199.933,atenolol,CC(C)NCC(O)COc1ccc(CC(N)=O)cc1
-0.48,3.1,206.493,propranolol,CC(C)NCC(O)COc1cccc2ccccc12
-1.3,2.31,253.60299999999998,labetalol,CC(CCc1ccccc1)NCC(O)c1ccc(O)c(C(N)=O)c1
-1.1778,2.43,269.231,enalapril,CCOC(=O)C(CCc1ccccc1)NC(C)C(=O)N1CCCC1C(=O)O
-1.237,2.96,268.643,enamipril,CCOC(=O)C(CCc1ccccc1)NC(C)CN1CCCC1C(=O)O
-4.4733,1.26,199.544,"Skeleton = 4, X = S, R1 = OCH3",COc1ccc(C(=O)c2ccc(S(N)(=O)=O)s2)cc1
-1.3785,2.07,271.69,"Skeleton = 4, X = S, R1 = OH, R2 = CH2N(CH3)-i-Bu",CC(C)CN(C)Cc1cc(C(=O)c2ccc(S(N)(=O)=O)s2)ccc1O
-1.4906,0.66,234.238,"Skeleton = 4, X = S, R1 = OH, R2 = CH2N(CH3)2",CN(C)Cc1cc(C(=O)c2ccc(S(N)(=O)=O)s2)ccc1O
-1.5471,1.92,254.899,"Skeleton = 4, X = S, R2 = CH2NH-i-Bu",CC(C)CNCc1cccc(C(=O)c2ccc(S(N)(=O)=O)s2)c1
-1.8828,0.17,252.424,"Skeleton = 4, X = S, R2 = CH2-morpholine",NS(=O)(=O)c1ccc(C(=O)c2cccc(CN3CCOCC3)c2)s1
-1.4569,2.45,267.383,"Skeleton = 4, X = S, R2 = CH2NH-iso-pentyl",CC(C)CCNCc1cccc(C(=O)c2ccc(S(N)(=O)=O)s2)c1
-4.1481,0.16,181.485,"Skeleton = 4, X = O, R1 = OCH3",COc1ccc(C(=O)c2ccc(S(N)(=O)=O)o2)cc1
-4.2219,1.26,210.812,"Skeleton = 5, X = S, R1 = OCH3",COc1ccc(S(=O)(=O)c2ccc(S(N)(=O)=O)s2)cc1
-3.0272,0.76,198.328,"Skeleton = 5, X = S, R1 = OH",NS(=O)(=O)c1ccc(S(=O)(=O)c2ccc(O)cc2)s1
-4.0245,1.5,206.505,"Skeleton = 5, X = S, R1 = CH3",Cc1ccc(S(=O)(=O)c2ccc(S(N)(=O)=O)s2)cc1
-1.0607,-0.0006129999999999999,263.692,"Skeleton = 5, X = S, R1 = CH2-1-morpholine ",NS(=O)(=O)c1ccc(S(=O)(=O)c2ccc(CN3CCOCC3)cc2)s1
-1.1196,1.75,266.16700000000003,"Skeleton = 5, X = S, R1 = CH2NH-i-Bu",CC(C)CNCc1ccc(S(=O)(=O)c2ccc(S(N)(=O)=O)s2)cc1
-1.6449,1.94,266.16700000000003,"Skeleton = 5, X = S, R1 = CH2NH-n-Bu",CCCCNCc1ccc(S(=O)(=O)c2ccc(S(N)(=O)=O)s2)cc1
-2.8612,0.9,187.06,"Skeleton = 4, X = S, R1 = OH",NS(=O)(=O)c1ccc(C(=O)c2ccc(O)cc2)s1
-0.6726,0.75,289.048,"Skeleton = 5, X = S, R1 = CH2NHCH2-2-pyridine",NS(=O)(=O)c1ccc(S(=O)(=O)c2ccc(CNCc3ccccn3)cc2)s1
-2.719,0.0653,198.328,"Skeleton = 5, X = S, R2 = OH",NS(=O)(=O)c1ccc(S(=O)(=O)c2cccc(O)c2)s1
-1.5519999999999998,1.75,266.16700000000003,"Skeleton = 5, X = S, R2 = CH2NH-i-Bu",CC(C)CNCc1cccc(S(=O)(=O)c2ccc(S(N)(=O)=O)s2)c1
-1.2884,1.75,266.16700000000003,"Skeleton = 5, X = S, R2 = CH2NH-s-Bu",CCC(C)NCc1cccc(S(=O)(=O)c2ccc(S(N)(=O)=O)s2)c1
-1.9266,1.75,266.16700000000003,"Skeleton = 5, X = S, R3 = CH2NH-i-Bu",CC(C)CNCc1ccccc1S(=O)(=O)c1ccc(S(N)(=O)=O)s1
-1.5165,1.22,253.683,"Skeleton = 5, X = S, R2 = CH2NH-i-Pr",CC(C)NCc1cccc(S(=O)(=O)c2ccc(S(N)(=O)=O)s2)c1
-1.9362,1.57,266.16700000000003,"Skeleton = 5, X = S, R1 = CH2NH-t-Bu",CC(C)(C)NCc1cccc(S(=O)(=O)c2ccc(S(N)(=O)=O)s2)c1
-1.9109,0.75,289.048,"Skeleton = 5, X = S, R3 = CH2NHCH2-2-pyridine",NS(=O)(=O)c1ccc(S(=O)(=O)c2ccccc2CNCc2ccccn2)s1
-2.4608,0.89,270.474,"Skeleton = 5, X = S, R2 = CH2NEt2, R2 = OH",CCN(CC)Cc1ccc(S(=O)(=O)c2ccc(S(N)(=O)=O)s2)cc1O
-3.0244,0.16,192.753,"Skeleton = 5, X = O, R1 = OCH3",COc1ccc(S(=O)(=O)c2ccc(S(N)(=O)=O)o2)cc1
-2.4027,-0.34,180.269,"Skeleton = 5, X = O, R1 = OH",NS(=O)(=O)c1ccc(S(=O)(=O)c2ccc(O)cc2)o1
-4.4492,1.67,195.237,"Skeleton = 4, X = S, R1 = CH3",Cc1ccc(C(=O)c2ccc(S(N)(=O)=O)s2)cc1
-3.7801,0.4,188.446,"Skeleton = 5, X = O, R1 = CH3",Cc1ccc(S(=O)(=O)c2ccc(S(N)(=O)=O)o2)cc1
-2.352,0.51,217.447,"Skeleton = 4, X = S, R1 = CH2NHCH3",CNCc1ccc(C(=O)c2ccc(S(N)(=O)=O)s2)cc1
-2.003,1.92,254.899,"Skeleton = 4, X = S, R1 = CH2NH-i-Bu",CC(C)CNCc1ccc(C(=O)c2ccc(S(N)(=O)=O)s2)cc1
-3.3319,2.41,283.601,"Skeleton = 4, X = S, R1 = CH2NHCH2Ph",NS(=O)(=O)c1ccc(C(=O)c2ccc(CNCc3ccccc3)cc2)s1
-2.1669,2.11,254.899,"Skeleton = 4, X = S, R1 = CH2NH-n-Bu",CCCCNCc1ccc(C(=O)c2ccc(S(N)(=O)=O)s2)cc1
-1.4812,0.17,252.424,"Skeleton = 4, X = S, R1 = CH2-1-morpholine ",NS(=O)(=O)c1ccc(C(=O)c2ccc(CN3CCOCC3)cc2)s1
-1.8802,-0.0855,270.327,"Skeleton = 4, X = S, R1 = CH2-1-(4-methylpiperazine)",CN1CCN(Cc2ccc(C(=O)c3ccc(S(N)(=O)=O)s3)cc2)CC1
-1.0324,1.72,259.20599999999996,"Skeleton = 4, X = S, R1 = OH, R2 = CH2NEt2",CCN(CC)Cc1cc(C(=O)c2ccc(S(N)(=O)=O)s2)ccc1O