Expt,ClogP,Polarizability,Name,smiles
-2.68,2.53,143.44899999999998,"1,7-phenantroline",c1ccc2c(c1)ccc1nccnc12
-2.09,1.54,275.248,brucine,COc1cc2c(cc1OC)C13CCN4CC5=CCOC6CC(=O)N2C1C6C5CC43
-3.32,1.74,241.666,strychnine,O=C1CC2OCC=C3CN4CCC56c7ccccc7N1C5C2C3CC46
-1.52,1.2,216.078,codeine,COc1ccc2c3c1OC1C(O)C=CC4C(C2)N(C)CCC341
-3.28,0.43,203.59400000000002,morphine,CN1CCC23c4c5ccc(O)c4OC2C(O)C=CC3C1C5
-1.87,1.01,219.141,thebainone A,COc1ccc2c(c1O)C13CCN(C)C(C2)C1C=CC(=O)C3
-2.82,0.78,240.33900000000003,ajmaline,CCC1C2CC3C4N(C)c5ccccc5C45CC(C2C5O)N3C1O
-0.48,0.76,211.62,scopolamine,CN1C2CC(OC(=O)C(CO)c3ccccc3)CC1C1OC12
-1.91,1.53,214.095,hyoscyamine,CN1C2CCC1CC(OC(=O)C(CO)c1ccccc1)C2
-2.23,3.08,214.683,cocaine,COC(=O)C1C(OC(=O)c2ccccc2)CC2CCC1N2C
-0.02,-0.6,122.973,ecgonine,CN1C2CCC1C(C(=O)O)C(O)C2
-4.55,2.47,201.597,RTI 15,CCN1c2ncccc2C(=O)Nc2c(C)cc(C)nc21
-3.36,1.6,228.114,RTI 6,CCN1c2nc(N(C)CCO)ccc2NC(=O)c2cccnc21
0.06,-0.8,102.449,7-methylpteridine,Cc1cnc2cncnc2n1
-0.91,-0.36,106.756,7-methoxypteridine,COc1cnc2cncnc2n1
-3.19,1.84,194.815,nevirapine,Cc1ccnc2c1NC(=O)c1cccnc1N2C1CC1
-3.32,1.57,194.93400000000003,RTI 5,CCN1c2ccccc2N(C)C(=O)c2cccnc21
-4.87,2.71,229.628,RTI 22,CCN1c2cc(N(C)C)cc(C)c2NC(=O)c2cccnc21
-5.15,2.57,211.725,RTI 23,CCN1c2cc(OC)cc(C)c2NC(=O)c2cccnc21
-2.86,1.54,201.597,RTI 2,CCN1C(=O)c2cccnc2N(CC)c2ncccc21
-2.62,1.0,189.113,reverse Transcriptase inhibitor 1,CCN1c2ncccc2C(=O)N(C)c2cccnc21
-0.12,-1.01,102.449,4-methylpteridine,Cc1ncc2nccnc2n1
-1.11,-0.56,106.756,4-methoxypteridine,COc1ncc2nccnc2n1
-1.95,-1.14,94.272,2-hydroxypteridine,Oc1ncc2nccnc2n1
0.02,-1.26,89.965,pteridine,c1cnc2ncncc2n1
-0.47,-0.8,102.449,2-methylpteridine,Cc1ncnc2nccnc12
-1.11,0.14,106.756,2-methoxypteridine,COc1ncnc2nccnc12
0.06,-0.8,102.449,7-methylpteridine,Cc1cnc2ncncc2n1
-1.14,-0.36,106.756,7-methoxypteridine,COc1cnc2ncncc2n1
-1.95,-0.12,169.613,tubercidin,Nc1ncnc2c1ccn2C1OC(CO)C(O)C1O
-1.23,-1.91,158.373,Inosine,OCC1OC(n2cnc3c(O)ncnc32)C(O)C1O
-1.39,-0.17,114.78200000000001,theophylline,Cn1c(=O)c2[nH]cnc2n(C)c1=O
-3.68,-2.02,245.037,riboflavin,Cc1cc2nc3c(=O)[nH]c(=O)nc-3n(CC(O)C(O)C(O)CO)c2cc1C
-2.68,0.54,167.035,thalidomide,O=C1CCC(N2C(=O)c3ccccc3C2=O)C(=O)N1
0.38,1.65,90.554,"2,3-dimethylpyridine",Cc1cccnc1C
0.38,1.65,90.554,"2,4-dimethylpyridine",Cc1ccnc(C)c1
0.4,1.65,90.554,"2,5-dimethylpyridine",Cc1ccc(C)nc1
0.45,1.65,90.554,"2,6-dimethylpyridine",Cc1cccc(C)n1
-1.42,1.28,125.919,"2,2´-bipyridine",c1ccc(-c2ccccn2)nc1
0.51,1.72,90.554,2-ethyl pyridine,CCc1ccccn1
1.02,-0.64,69.893,2-hydroxypyridine,Oc1ccccn1
-3.14,2.83,278.211,noscapine,COc1ccc2c(c1OC)C(=O)OC2C1c2c(cc3c(c2OC)OCO3)CCN1C
-4.11,2.66,261.42,hydrastine,COc1ccc2c(c1OC)C(=O)OC2C1c2cc3c(cc2CCN1C)OCO3
-1.89,2.35,191.602,meperidine,CCOC(=O)C1(c2ccccc2)CCN(C)CC1
1.0,-0.4,71.205,N-methylpyrrolidone,CN1CCCC1=O
-1.42,-0.13,357.608,rolitetracycline,CN(C)C1C(O)=C(C(=O)NCN2CCCC2)C(=O)C2(O)C(O)=C3C(=O)c4c(O)cccc4C(C)(O)C3CC12
0.23,1.32,83.101,N-methylpiperidine,CN1CCCCC1
-3.46,2.66,212.783,piperine,O=C(C=CC=Cc1ccc2c(c1)OCO2)N1CCCCC1
-0.17,0.41,77.868,N-nitrosopiperidine,O=NN1CCCCC1
-2.07,-1.83,144.61,vasicinone,OC1CCN2C1=Nc1ccccc1C2O
0.81,1.28,112.30799999999999,arecoline,COC(=O)C1=CCCN(C)C1
-3.64,-0.77,295.934,trimazosin,COc1cc2c(N)nc(N3CCN(C(=O)OCC(C)(C)O)CC3)nc2c(OC)c1OC
-2.15,-0.72,128.697,Isocarbamid,CC(C)CNC(=O)N1CCNC1=O
-2.98,0.99,205.046,pipedemic acid,CCn1cc(C(=O)O)c(=O)c2cnc(N3CCNCC3)nc21
1.0,-0.33,74.92399999999999,N-methylmorpholine,CN1CCOCC1
0.72,-3.25,85.685,betaine,C[N+](C)(C)CC(=O)O
-1.45,1.96,107.428,isoquinoline,c1ccc2cnccc2c1
-1.89,3.21,184.83700000000002,sparteine,C1CCN2CC3CC(CN4CCCCC34)C2C1
0.36,1.65,90.554,"3,4-dimethylpyridine",Cc1ccncc1C
0.38,1.65,90.554,"3,5-dimethylpyridine",Cc1cncc(C)c1
0.96,-0.46,82.37700000000001,3-pyridinemethanol,OCc1cccnc1
-0.46,0.88,95.449,methyl nicotinate,COC(=O)c1cccnc1
-0.84,0.15,82.965,nicotinic acid,O=C(O)c1cccnc1
-0.46,0.64,69.893,3-hydroxypyridine,Oc1cccnc1
0.79,0.72,130.95,nicotine,CN1CCCC1c1cccnc1
-1.55,2.04,197.021,"d,l-mepivacaine",Cc1cccc(C)c1NC(=O)C1CCCCN1C
-2.63,3.68,232.737,hydrocinchonine,CCC1CN2CCC1CC2C(O)c1ccnc2ccccc12
-2.76,3.44,248.872,quinidine,C=CC1CN2CCC1CC2C(O)c1ccnc2ccc(OC)cc12
-3.07,3.35,232.081,cinchonidine,C=CC1CN2CCC1CC2C(O)c1ccnc2ccccc12
-1.54,1.2,125.919,"4,4´-bipyridine",c1cc(-c2ccncc2)ccn1
1.02,-1.3,69.893,4-hydroxypyridine,Oc1ccncc1
0.76,0.73,65.586,pyridine,c1ccncc1
-0.17,-1.1,160.84799999999998,dyphylline,Cn1c(=O)c2c(ncn2CC(O)CO)n(C)c1=O
-0.97,-0.13,127.266,caffeine,Cn1c(=O)c2c(ncn2C)n(C)c1=O
-2.52,-0.72,114.78200000000001,theobromine,Cn1cnc2c1c(=O)[nH]c(=O)n2C
-1.23,-2.32,158.373,Inosine,O=c1[nH]cnc2c1ncn2C1OC(CO)C(O)C1O
-4.74,3.26,184.46900000000002,etomidate,CCOC(=O)c1cncn1C(C)c1ccccc1
-2.6,0.82,190.171,ancymidol,COc1ccc(C(O)(c2cncnc2)C2CC2)cc1
1.1,-0.33,59.765,pyrimidine,c1cncnc1
-1.16,1.59,87.42299999999999,benzoxazole,c1ccc2ocnc2c1
-3.37,1.0,160.745,nalidixic acid,CCn1cc(C(=O)O)c(=O)c2ccc(C)nc21
0.96,-0.23,82.37700000000001,N-methyl-2-pyridone,Cn1ccccc1=O
-0.8,-1.2,80.863,1-methyluracil,Cn1ccc(=O)[nH]c1=O
-4.88,2.12,205.165,benomyl,CCCCNC(=O)n1c(NC(=O)OC)nc2ccccc21
-4.59,2.86,167.171,lenacil,O=c1[nH]c2c(c(=O)n1C1CCCCC1)CCC2
-1.56,-0.62,106.605,1-methyluric acid,Cn1c(=O)[nH]c2[nH]c(=O)[nH]c2c1=O
-2.23,1.18,132.043,metharbital,CCC1(CC)C(=O)NC(=O)N(C)C1=O
-2.74,1.59,162.05700000000002,hexabarital,CN1C(=O)NC(=O)C(C)(C2=CCCCC2)C1=O
-2.92,2.5,197.03599999999997,methaqualone,Cc1ccccc1-n1c(C)nc2ccccc2c1=O
-7.42,6.18,224.18900000000002,"13H-dibenzo(a,i)carbazole",c1ccc2c(c1)ccc1c3ccc4ccccc4c3[nH]c21
-4.97,3.72,140.505,carbazole,c1ccc2c(c1)[nH]c1ccccc12
-2.57,2.26,158.325,etryptamine,CCC(N)Cc1c[nH]c2ccccc12
-1.23,1.04,150.736,tryptophan,NC(Cc1c[nH]c2ccccc12)C(=O)O
-2.07,1.43,128.526,indole-3-acetic acid,O=C(O)Cc1c[nH]c2ccccc12
-2.42,2.6,111.147,3-methylindole,Cc1c[nH]c2ccccc12
-1.52,2.14,98.663,indole,c1ccc2[nH]ccc2c1
-2.14,1.26,111.735,2-(1H)quinolinone,O=c1ccc2ccccc2[nH]1
-2.12,-0.0256,90.926,adenine,Nc1ncnc2[nH]cnc12
-3.93,-1.08,94.12100000000001,uric acid,O=c1[nH]c(=O)c2[nH]c(=O)[nH]c2[nH]1
-2.61,1.15,100.495,phthalimide,O=C1NC(=O)c2ccccc21
-3.93,4.64,389.102,norbormide,O=C1NC(=O)C2C3C(C(O)(c4ccccc4)c4ccccn4)=CC(C3=C(c3ccccc3)c3ccccn3)C12
-2.93,0.14,101.15100000000001,phthalamide,O=C1NC(=O)C2C=CC=CC12
-2.34,2.7,162.915,2-ethyl-2-phenylgluterimide,CCC1(c2ccccc2)CCC(=O)NC1=O
0.3,-1.18,59.309,succinimide,O=C1CCC(=O)N1
-1.13,0.56,194.74599999999998,cycloheximide,CC1CC(C)C(=O)C(C(O)CC2CC(=O)NC(=O)C2)C1
-6.52,5.42,306.11,3-octanoyloxymethylphenytoin,CCCCCCCC(=O)OCN1C(=O)NC(c2ccccc2)(c2ccccc2)C1=O
-6.3,4.89,293.626,3-heptanoyloxymethylphenytoin,CCCCCCC(=O)OCN1C(=O)NC(c2ccccc2)(c2ccccc2)C1=O
-5.89,4.36,281.142,3-hexanoyloxymethylphenyltoin,CCCCCC(=O)OCN1C(=O)NC(c2ccccc2)(c2ccccc2)C1=O
-4.68,3.83,268.658,3-pentanoyloxymethylphenytoin,CCCCC(=O)OCN1C(=O)NC(c2ccccc2)(c2ccccc2)C1=O
-5.07,3.3,256.17400000000004,3-butanoyloxymethylphenytoin,CCCC(=O)OCN1C(=O)NC(c2ccccc2)(c2ccccc2)C1=O
-4.91,2.77,243.69,3-propanoyloxymethylphenytoin,CCC(=O)OCN1C(=O)NC(c2ccccc2)(c2ccccc2)C1=O
-4.47,2.24,231.206,3-ethanoyloxymethylphenytoin,CC(=O)OCN1C(=O)NC(c2ccccc2)(c2ccccc2)C1=O
-4.1,2.52,188.859,phenytoin,O=C1NC(=O)C(c2ccccc2)(c2ccccc2)N1
0.36,0.14,140.959,cytisine,O=c1cccc2n1CC1CNCC2C1
-1.04,1.63,99.319,indoline,c1ccc2c(c1)CCN2
1.07,-1.45,58.721000000000004,pyrrolidone,O=C1CCCN1
1.15,0.37,58.133,pyrrolidine,C1CCNC1
1.07,0.93,70.617,piperidine,C1CCNCC1
1.07,-1.17,67.859,piperazine,C1CNCCN1
-2.6,4.39,218.658,antazoline,c1ccc(CN(CC2=NCCN2)c2ccccc2)cc1
1.06,-1.08,62.44,morpholine,C1COCCN1
-0.4,-1.69,56.551,hydantoin,O=C1CNC(=O)N1
-0.83,-2.56,69.035,"2,5-Piperazinedione",O=C1CNC(=O)CN1
-2.64,0.4,160.157,primidone,CCC1(c2ccccc2)C(=O)NCNC1=O
-1.5,2.49,108.069,2-propylpiperidine,CCCC1CCCCN1
-1.5,1.96,95.585,coniine,CCC1CCCCN1
-0.45,0.45,108.65700000000001,pelletierine,CC(=O)CC1CCCCN1
0.74,-0.68,80.343,2-methylpiperazine,CC1CNCCN1
0.49,-0.19,92.82700000000001,"trans-2,5-dimethylpiperazine",CC1CNC(C)CN1
-0.17,0.75,56.821000000000005,pyrrole,c1cc[nH]c1
-1.61,0.42,187.732,anisomycin,COc1ccc(CC2NCC(O)C2OC(C)=O)cc1
-0.06,-0.67,81.51899999999999,5-ethylhydantoin,CCC1NC(=O)NC1=O
-1.6,-2.89,89.075,allantoin,NC(=O)NC1NC(=O)NC1=O
-2.29,-1.19,85.507,hypoxanthine,O=c1[nH]cnc2nc[nH]c12
-3.58,-0.98,95.23299999999999,guanine,Nc1nc2[nH]cnc2c(=O)[nH]1
-2.12,-0.0256,90.926,adenine,Nc1ncnc2nc[nH]c12
-3.4,-2.14,95.23299999999999,isoguanine,Nc1nc(O)nc2nc[nH]c12
-0.53,-1.27,103.073,histidine,NC(Cc1c[nH]cn1)C(=O)O
-1.96,0.00921,92.691,urocanic acid,O=C(O)C=Cc1c[nH]cn1
-1.52,-0.12,80.863,5-methyluracil,Cc1c[nH]c(=O)[nH]c1=O
-1.46,-1.12,86.28200000000001,5-methylcytosine,Cc1c[nH]c(=O)nc1N
0.59,-1.38,64.072,3H-pyrimidin-4-one,O=c1ccnc[nH]1
-1.48,-0.71,68.37899999999999,uracil,O=c1cc[nH]c(=O)[nH]1
-1.14,-1.71,73.798,cytosine,Nc1cc[nH]c(=O)n1
-3.88,2.83,211.657,mebendazole,COC(=O)Nc1nc2ccc(C(=O)c3ccccc3)cc2[nH]1
-3.36,2.83,211.657,mebendazole,COC(=O)Nc1nc2cc(C(=O)c3ccccc3)ccc2[nH]1
-1.96,1.57,105.32600000000001,2-methylbenzimidazole,Cc1nc2ccccc2[nH]1
-0.4,-1.99,57.138999999999996,parabanic acid,O=C1NC(=O)C(=O)N1
-1.89,-1.07,87.809,cyclopropyl-5-spirobarbituric acid,O=C1NC(=O)C2(CC2)C(=O)N1
-1.65,-0.5,100.29299999999999,cyclobutyl-5-spirobarbituric acid,O=C1NC(=O)C2(CCC2)C(=O)N1
-2.35,0.0602,112.777,cyclopentyl-5-spirobarbituric acid,O=C1NC(=O)C2(CCCC2)C(=O)N1
-3.06,0.62,125.26100000000001,cyclohexyl-5-spirobarbituric acid,O=C1NC(=O)C2(CCCCC2)C(=O)N1
-3.17,1.19,137.745,cycloheptyl-5-spirobarbituric acid,O=C1NC(=O)C2(CCCCCC2)C(=O)N1
-2.98,1.75,150.22899999999998,cyclooctyl-5-spirobarbituric acid,O=C1NC(=O)C2(CCCCCCC2)C(=O)N1
-1.64,1.71,144.52700000000002,5-butyl-5-ethylbarbituric acid,CCCCC1(CC)C(=O)NC(=O)NC1=O
-2.57,2.05,157.011,amobarbital,CCC1(CCC(C)C)C(=O)NC(=O)NC1=O
-2.32,1.67,160.745,phenobarbital,CCC1(c2ccccc2)C(=O)NC(=O)NC1=O
-2.64,2.04,180.243,reposal,CCC1(C2=CC3CCC(C2)C3)C(=O)NC(=O)NC1=O
-2.7,2.04,180.243,reposal,CCC1(C2=CCC3CCC2C3)C(=O)NC(=O)NC1=O
-2.17,1.62,162.05700000000002,cyclobarbital,CCC1(C2=CCCCC2)C(=O)NC(=O)NC1=O
-3.0,2.18,174.541,heptabarbital,CCC1(C2=CCCCCC2)C(=O)NC(=O)NC1=O
-1.39,0.64,119.559,barbital,CCC1(CC)C(=O)NC(=O)NC1=O
-2.25,1.84,156.355,5-(3-Methyl-2-butenyl)-5-ethylbarbital,CCC1(CC=C(C)C)C(=O)NC(=O)NC1=O
-1.61,0.77,131.387,5-allyl-5-ethylbarbital,C=CCC1(CC)C(=O)NC(=O)NC1=O
-1.23,0.11,107.075,5-methyl-5-ethylbarbituric acid,CCC1(C)C(=O)NC(=O)NC1=O
-2.18,1.69,172.57299999999998,phenallymal,C=CCC1(c2ccccc2)C(=O)NC(=O)NC1=O
-2.06,1.11,143.215,allobarbital,C=CCC1(CC=C)C(=O)NC(=O)NC1=O
-1.16,0.24,118.90299999999999,5-allyl-5-methylbarbital,C=CCC1(C)C(=O)NC(=O)NC1=O
-1.74,-0.42,94.59100000000001,"5,5-dimethylbarbituric acid",CC1(C)C(=O)NC(=O)NC1=O
-2.52,2.05,157.011,pentobarbital,CCCC(C)C1(CC)C(=O)NC(=O)NC1=O
-2.36,2.18,168.83900000000003,secobarbital,C=CCC1(C(C)CCC)C(=O)NC(=O)NC1=O
-2.39,1.52,144.52700000000002,butabarbital,CCC(C)C1(CC)C(=O)NC(=O)NC1=O
-2.02,1.65,156.355,talbutal,C=CCC1(C(C)CC)C(=O)NC(=O)NC1=O
-2.21,0.99,132.043,probarbital,CCC1(C(C)C)C(=O)NC(=O)NC1=O
-2.59,2.19,168.83900000000003,5-(3-methyl-2-butenyl)-5-isoprbarbital,CC(C)=CCC1(C(C)C)C(=O)NC(=O)NC1=O
-1.71,1.11,143.871,aprobarbital,C=CCC1(C(C)C)C(=O)NC(=O)NC1=O
-2.77,1.34,144.52700000000002,"5,5-diisopropylbarbital",CC(C)C1(C(C)C)C(=O)NC(=O)NC1=O
-1.99,-0.37,142.607,alloxanthin,O=C1NC(=O)C(O)(C2(O)C(=O)NC(=O)NC2=O)C(=O)N1
-1.25,-1.84,70.211,alloxan,O=C1NC(=O)C(=O)C(=O)N1
-3.03,2.2,161.186,ethirimol,CCCCc1c(C)nc(NCC)[nH]c1=O
-1.26,-0.12,80.863,6-methyluracil,Cc1cc(=O)[nH]c(=O)[nH]1
-1.93,-0.93,85.758,orotic acid,O=C(O)c1cc(=O)[nH]c(=O)[nH]1
-2.16,1.82,92.84200000000001,indazole,c1ccc2[nH]ncc2c1
-2.38,-1.33,85.507,allopurinol,Oc1ncnc2[nH]ncc12
-2.27,-0.48,85.507,allopurin,O=c1[nH]cnc2[nH]ncc12
0.52,-0.87,54.905,amitrole,Nc1nc[nH]n1
-0.78,1.34,87.021,benzotriazole,c1ccc2[nH]nnc2c1
-3.54,1.72,219.044,apazone,CCCC1C(=O)N2C(N(C)C)=Nc3ccc(C)cc3N2C1=O
-3.73,2.72,243.102,oxyphenbutazone,CCCCC1C(=O)N(c2ccccc2)N(c2ccc(O)cc2)C1=O
-3.81,3.16,238.795,phenylbutazone,CCCCC1C(=O)N(c2ccccc2)N(c2ccccc2)C1=O
-3.27,1.25,239.38299999999998,Kebuzone,CC(=O)CCC1C(=O)N(c2ccccc2)N(c2ccccc2)C1=O
-2.09,2.16,181.71099999999998,pyrolan,Cc1cc(OC(=O)N(C)C)n(-c2ccccc2)n1
0.71,0.27,146.429,antipyrine,Cc1cc(=O)n(-c2ccccc2)n1C
-0.63,0.76,181.123,aminopyrine,Cc1c(N(C)C)c(=O)n(-c2ccccc2)n1C
-0.62,-0.4,156.155,aminophenazone,Cc1c(N)c(=O)n(-c2ccccc2)n1C
1.1,0.0245,59.765,pyridazine,c1ccnnc1
-5.51,4.7,254.636,danazol,C#CC1(O)CCC2C3CCC4=Cc5oncc5CC4(C)C3CCC21C
-0.07,0.66,62.372,3-hydroxy-5-methylisoxazole,Cc1cc(O)no1
-3.54,3.18,128.96,1-nitronaphthalene,O=[N+]([O-])c1cccc2ccccc12
-5.82,4.16,152.94799999999998,quintozene,O=[N+]([O-])c1c(Cl)c(Cl)c(Cl)c(Cl)c1Cl
-4.47,3.57,195.112,medinoterb acetate,CC(=O)Oc1c(C(C)(C)C)cc([N+](=O)[O-])c(C)c1[N+](=O)[O-]
-5.47,5.86,186.02700000000002,dinitramine,CCN(CC)c1c([N+](=O)[O-])cc(C(F)(F)F)c(N)c1[N+](=O)[O-]
-5.53,5.41,201.269,benfluralin,CCCCN(CC)c1c([N+](=O)[O-])cc(C(F)(F)F)cc1[N+](=O)[O-]
-5.68,5.41,201.269,trifluralin,CCCN(CCC)c1c([N+](=O)[O-])cc(C(F)(F)F)cc1[N+](=O)[O-]
-6.78,5.91,243.579,flumetralin,CCN(Cc1c(F)cccc1Cl)c1c([N+](=O)[O-])cc(C(F)(F)F)cc1[N+](=O)[O-]
-6.12,5.1,200.613,ethalfluralin,C=C(C)CN(CC)c1c([N+](=O)[O-])cc(C(F)(F)F)cc1[N+](=O)[O-]
-6.49,5.3,224.91099999999997,Isopropalin,CCCN(CCC)c1c([N+](=O)[O-])cc(C(C)C)cc1[N+](=O)[O-]
-1.46,2.2,119.62,DNOC,Cc1cc([N+](=O)[O-])cc([N+](=O)[O-])c1O
-3.38,3.61,157.072,dinoseb,CCC(C)c1cc([N+](=O)[O-])cc([N+](=O)[O-])c1O
-3.22,1.68,131.024,"2,4,6-trinitrotoluene",Cc1c([N+](=O)[O-])cc([N+](=O)[O-])cc1[N+](=O)[O-]
-5.16,3.38,221.525,oryzalin,CCCN(CCC)c1c([N+](=O)[O-])cc(S(N)(=O)=O)cc1[N+](=O)[O-]
-3.48,2.9,113.45,"2,3-dichloronitrobenzene",O=[N+]([O-])c1cccc(Cl)c1Cl
-3.0,2.08,115.31299999999999,"2,6-dinitrotoluene",Cc1c([N+](=O)[O-])cccc1[N+](=O)[O-]
-4.04,3.24,174.421,fenitrothion,COP(=S)(OC)Oc1ccc([N+](=O)[O-])c(C)c1
-2.82,2.08,115.31299999999999,"2,4-dinitrotoluene",Cc1ccc([N+](=O)[O-])cc1[N+](=O)[O-]
-4.76,2.97,235.864,nifedipine,COC(=O)C1=C(C)NC(C)=C(C(=O)OC)C1c1ccccc1[N+](=O)[O-]
-2.33,2.41,99.602,2-nitrotoluene,Cc1ccccc1[N+](=O)[O-]
-2.55,2.34,100.28399999999999,o-chloronitrobenzene,O=[N+]([O-])c1ccccc1Cl
-3.1,1.84,102.829,"1,2-dinitrobenzene",O=[N+]([O-])c1ccccc1[N+](=O)[O-]
-1.96,1.83,96.844,2-nitroaniline,Nc1ccccc1[N+](=O)[O-]
-1.91,1.0,122.4,2-nitroacetanilide,CC(=O)Nc1ccccc1[N+](=O)[O-]
-1.96,1.73,103.90899999999999,2-nitroanisole,COc1ccccc1[N+](=O)[O-]
-1.74,1.71,91.425,2-nitrophenol,O=[N+]([O-])c1ccccc1O
-3.8,1.39,212.747,nimetazepam,CN1C(=O)CN=C(c2ccccc2)c2cc([N+](=O)[O-])ccc21
-3.5,2.34,213.429,clonazepam,O=C1CN=C(c2ccccc2Cl)c2cc([N+](=O)[O-])ccc2N1
-3.8,2.18,200.263,nitrazepam,O=C1CN=C(c2ccccc2)c2cc([N+](=O)[O-])ccc2N1
-3.2,3.16,113.45,"3,4-dichloronitrobenzene",O=[N+]([O-])c1ccc(Cl)c(Cl)c1
-4.7,5.4,206.709,niclosamide,O=C(Nc1ccc([N+](=O)[O-])cc1Cl)c1cc(Cl)ccc1O
-4.31,3.46,175.10299999999998,dicaphton,COP(=S)(OC)Oc1ccc([N+](=O)[O-])cc1Cl
-2.89,1.22,118.54,"1,3,5-trinitrobenzene",O=[N+]([O-])c1cc([N+](=O)[O-])cc([N+](=O)[O-])c1
-2.44,2.41,99.602,3-nitrotoluene,Cc1cccc([N+](=O)[O-])c1
-2.77,2.64,100.28399999999999,m-chloronitrobenzene ,O=[N+]([O-])c1cccc(Cl)c1
-1.68,1.82,104.49700000000001,3-nitrobenzoic acid,O=C(O)c1cccc([N+](=O)[O-])c1
-2.29,1.62,102.829,"1,3-dinitrobenzene",O=[N+]([O-])c1cccc([N+](=O)[O-])c1
-2.19,1.37,96.844,3-nitroaniline,Nc1cccc([N+](=O)[O-])c1
-1.01,1.93,91.425,3-nitrophenol,O=[N+]([O-])c1cccc(O)c1
-2.49,2.41,99.602,4-nitrotoluene,Cc1ccc([N+](=O)[O-])cc1
-2.11,1.02,194.798,chloramphenicol,O=C(NC(CO)C(O)c1ccc([N+](=O)[O-])cc1)C(Cl)Cl
-2.92,2.6,100.28399999999999,p-chloronitrobenzene,O=[N+]([O-])c1ccc(Cl)cc1
-2.8,1.89,104.49700000000001,4-nitrobenzoic acid,O=C(O)c1ccc([N+](=O)[O-])cc1
-3.39,1.37,102.829,"1,4-dinitrobenzene",O=[N+]([O-])c1ccc([N+](=O)[O-])cc1
-2.37,1.39,96.844,4-nitroaniline,Nc1ccc([N+](=O)[O-])cc1
-2.69,1.66,122.4,4-nitroacetanilide,CC(=O)Nc1ccc([N+](=O)[O-])cc1
-5.46,4.92,183.91099999999997,nitrofen,O=[N+]([O-])c1ccc(Oc2ccc(Cl)cc2Cl)cc1
-2.41,2.03,103.90899999999999,4-nitroanisole,COc1ccc([N+](=O)[O-])cc1
-0.74,1.57,91.425,4-nitrophenol,O=[N+]([O-])c1ccc(O)cc1
-4.66,3.84,186.905,parathion,CCOP(=S)(OCC)Oc1ccc([N+](=O)[O-])cc1
-3.68,2.78,161.937,parathion methyl,COP(=S)(OC)Oc1ccc([N+](=O)[O-])cc1
-1.8,1.95,87.118,nitrobenzene,O=[N+]([O-])c1ccccc1
-2.28,-1.13,85.334,5-nitrobarbituric acid,O=C1NC(=O)C([N+](=O)[O-])C(=O)N1
-2.81,0.91,180.63099999999997,benznidazole,O=C(Cn1ccnc1[N+](=O)[O-])NCc1ccccc1
-1.26,-0.0133,108.47,metronidazole,Cc1ncc([N+](=O)[O-])n1CCO
-2.19,0.28,89.911,nifuroxime,O=[N+]([O-])c1ccc(C=NO)o1
-3.38,-0.4,136.90200000000002,nitrofurantoin,O=C1CN(N=Cc2ccc([N+](=O)[O-])o2)C(=O)N1
-3.22,0.91,130.061,niridazole,O=C1NCCN1c1ncc([N+](=O)[O-])s1
-2.0,3.09,72.946,chloropicrin,O=[N+]([O-])C(Cl)(Cl)Cl
-0.8,0.87,58.416000000000004,1-nitropropane,CCC[N+](=O)[O-]
-0.22,0.34,45.931999999999995,nitroethane,CC[N+](=O)[O-]
0.26,-0.2,33.448,nitromethane,C[N+](=O)[O-]
-0.62,0.68,58.416000000000004,2-nitropropane,CC(C)[N+](=O)[O-]
-1.37,-1.31,58.907,nitroguanidine,N=C(N)N[N+](=O)[O-]
-2.63,0.9,115.243,isosorbide dinitrate,O=[N+]([O-])OC1COC2C(O[N+](=O)[O-])COC12
-2.22,2.32,102.759,nitroglycerin,O=[N+]([O-])OCC(CO[N+](=O)[O-])O[N+](=O)[O-]
-4.61,2.8,166.649,"2-Phenyl-3,1-benzoxazin-4-one",O=c1nc(-c2ccccc2)oc2ccccc12
-4.61,2.8,166.649,bentranil,O=c1oc(-c2ccccc2)nc2ccccc12
-2.16,0.15,87.447,1H-indazole,C1=NN=c2ccccc2=1
-2.38,-0.48,85.507,allopurinol,O=c1[nH]cnc2[nH]ncc12
0.59,-1.24,61.00899999999999,4(3H)-Pyrimidonep,O=C1CC=NC=N1
-3.12,-1.47,292.244,tetracycline,CN(C)C1C(O)=C(C(N)=O)C(=O)C2(O)C(O)=C3C(=O)c4c(O)cccc4C(C)(O)C3CC12
-1.42,-0.45,265.139,rolitetracycline,CN(C)C1C(O)=CC(=O)C2(O)C(O)=C3C(=O)c4ccccc4C(C)(O)C3CC12
-3.14,-1.5,296.551,oxytetracycline,CN(C)C1C(O)=C(C(N)=O)C(=O)C2(O)C(O)=C3C(=O)c4c(O)cccc4C(C)(O)C3C(O)C12
-2.87,-0.54,292.244,doxycycline,CC1c2cccc(O)c2C(=O)C2=C(O)C3(O)C(=O)C(C(N)=O)=C(O)C(N(C)C)C3C(O)C21
-2.38,1.07,97.59899999999999,phthalonitrile,N#Cc1ccccc1C#N
-1.0,1.65,84.50299999999999,benzonitrile,N#Cc1ccccc1
0.28,0.0842,43.317,propionitrile,CCC#N
-0.96,0.92,67.62899999999999,3-pentenenitrile,CC=CCC#N
0.26,-0.45,30.833000000000002,acetonitrile,CC#N
0.15,0.19,42.661,acrylonitrile,C=CC#N
-0.77,-0.36,280.608,amygdalin,N#CC(OC1OC(COC2OC(CO)C(O)C(O)C2O)C(O)C(O)C1O)c1ccccc1
-6.03,5.48,265.433,fenpropathrin,CC1(C)C(C(=O)OC(C#N)c2cccc(Oc3ccccc3)c2)C1(C)C
-3.12,4.84,164.787,tributylamine,CCCCN(CCCC)CCCC
-2.28,3.25,127.335,tripropylamine,CCCN(CCC)CCC
-4.46,4.92,239.72099999999998,amitriptyline,CN(C)CCC=C1c2ccccc2CCc2ccccc21
-3.4,3.86,231.544,doxepin,CN(C)CCC=C1c2ccccc2COc2ccccc21
-2.64,2.84,213.612,tripelenamine,CN(C)CCN(Cc1ccccc1)c1ccccn1
-3.7,3.87,269.099,dibucaine,CCCCOc1cc(C(=O)NCCN(CC)CC)c2ccccc2n1
-1.4,2.36,183.142,procaine,CCN(CC)CCOC(=O)c1ccc(N)cc1
-3.84,4.81,227.65900000000002,stadacaine,CCCCOc1ccc(C(=O)OCCN(CC)CC)cc1
-2.71,3.75,202.69099999999997,parethoxycaine,CCOc1ccc(C(=O)OCCN(CC)CC)cc1
-0.73,0.81,139.683,N-phenyldiethanolamine,OCCN(CCO)c1ccccc1
-3.84,5.36,227.65900000000002,stadacaine,CCCCOc1ccc(C(=O)OCC)c(N(CC)CC)c1
-3.03,3.39,131.069,"N,N-diethylaniline",CCN(CC)c1ccccc1
-0.14,1.66,89.883,triethylamine,CCN(CC)CC
-1.76,2.36,191.31900000000002,lidocaine,CCN(CC)CC(=O)Nc1c(C)cccc1C
-3.57,3.24,215.25799999999998,Napropamide,CCN(CC)C(=O)C(C)Oc1cccc2ccccc12
-0.95,1.07,119.17299999999999,N-methylacetanilide,CC(=O)N(C)c1ccccc1
-3.35,3.01,220.021,methyldymron,CN(C(=O)NC(C)(C)c1ccccc1)c1ccccc1
-2.36,2.01,158.174,aminocarb,CNC(=O)Oc1ccc(N(C)C)c(C)c1
-1.92,2.33,106.101,"N,N-dimethylaniline",CN(C)c1ccccc1
-2.24,2.79,161.186,dimethirimol,CCCCc1c(C)nc(N(C)C)nc1O
-1.95,1.7,171.5,pirimicarb,Cc1nc(N(C)C)nc(OC(=O)N(C)C)c1C
-3.36,2.42,158.026,altretamine,CN(C)c1nc(N(C)C)nc(N(C)C)n1
0.84,0.0628,52.431000000000004,trimethylamine,CN(C)C
-2.34,0.86,164.18099999999998,formetanate,CNC(=O)Oc1cccc(N=CN(C)C)c1
1.11,-0.75,65.503,"N,N-dimethylacetamide",CC(=O)N(C)C
-2.98,2.63,197.81099999999998,diphenamid,CN(C)C(=O)C(c1ccccc1)c1ccccc1
0.94,0.19,87.713,tetramethylurea,CN(C)C(=O)N(C)C
-2.93,1.66,205.94,kasugamycin,CN(C)C(=O)Nc1cccc(OC(=O)NC(C)(C)C)c1