,Expt,ClogP,Polarizability,Name,smiles
2589,-0.897,-2.41,102.922,None,NC(=O)NCC(=O)NCC(=O)O
2590,-1.297,0.31,128.202,None,O=C(O)CNC(=S)SCC(=O)O
2591,-1.815,1.18,175.68900000000005,None,CCCCC(=O)NCCNC(=O)CCCC
2592,-2.53,2.79,164.851,None,CCOC(=O)CCCCCCC(=O)OCC
2593,-3.283,2.79,164.851,None,COC(=O)CCCCCCCCC(=O)OC
2594,-1.038,0.2,116.36,None,CCCCOC(=O)NS(N)(=O)=O
2595,-1.888,2.04,95.225,None,CCC(CO[N+](=O)[O-])O[N+](=O)[O-]
2596,-3.388,4.34,177.335,None,CCCCCCCCOC(=O)C(C)OC(C)=O
2597,-4.48,3.17,163.959,None,COc1ccc2c(c1)[nH]c1c(C)nccc12
2598,-1.735,0.7,146.851,None,CCCC(C)(COC(N)=O)COC(N)=O
2601,-1.749,1.07,141.328,None,CCC(CC)COC(=O)NS(N)(=O)=O
2602,-1.948,-1.78,119.767,None,CC(C=NNC(N)=O)=NNC(N)=O
2603,0.412,-2.64,159.335,None,O=C(CCCCC(=O)NCCO)NCCO
2608,-0.813,-0.0423,89.12799999999999,None,O=[N+]([O-])C12COP(=O)(OC1)OC2
2624,-1.712,1.11,143.871,None,C=CCC1(C(C)C)C(=O)NC(=O)NC1=O
2625,-1.449,3.24,154.44299999999996,None,O=C(O)CSSSSCC(=O)O
2626,-4.5539999999999985,-3.76,108.305,None,Nc1nc2[nH]c(=O)cnc2c(=O)[nH]1
2627,-2.154,-3.43,111.063,None,Cc1nc2c(=O)[nH]cnc2[nH]c1=O
2628,-3.052,1.64,135.167,None,CC1(C)OC(=O)c2cc([N+](=O)[O-])ccc21
2630,-1.929,-0.12,134.792,None,CC(=NNC(=O)c1nccs1)C(=O)O
2631,-3.687,-3.57,102.886,None,O=c1[nH]c2nc[nH]c(=O)c2[nH]c1=O
2632,-3.125,-3.48,102.886,None,O=c1cnc2[nH]c(=O)[nH]c(=O)c2[nH]1
2633,-3.302,2.06,163.959,None,Oc1cc2ccccc2cc1C1=NCCN1
2634,-0.35700000000000004,2.27,125.816,None,N#CC(C#N)=NNc1ccccc1
2635,-3.848,2.98,171.917,None,O=C(O)c1cccc(N=Nc2ccc(O)cc2)c1
2636,-3.329,3.72,171.917,None,O=C(O)c1ccccc1N=Nc1ccc(O)cc1
2639,-2.264,0.45,144.208,None,CCc1nc2cnc(=O)[nH]c2nc1CC
2640,-3.314,-0.55,136.738,None,CC(=NNC(=O)c1ccncc1)C(=O)O
2641,-3.938,-1.04,106.605,None,Cn1c(=O)[nH]c2c(=O)[nH]c(=O)[nH]c21
2642,-2.077,-0.68,137.796,None,COc1cc(N)c2c(c1OC)C(=O)OC2
2643,-1.155,2.15,98.289,None,O=C(c1ccccc1)C(F)(F)F
2644,-3.96,2.46,139.93,None,Cc1ccc2c([N+](=O)[O-])ccc(O)c2n1
2645,-3.707,3.18,128.96,None,O=[N+]([O-])c1cccc2ccccc12
2646,-2.3280000000000003,1.63,135.964,None,CCOc1ccc(NC(C)=O)cc1
2647,-2.577,3.41,164.372,None,Cc1cc(O)c(C(C)C)cc1C(=O)CCl
2648,-1.484,1.92,141.769,None,CCOc1nc(OCC)nc(OCC)n1
2650,-3.76,2.4,152.838,None,CNC(=O)Oc1cccc2ccccc12
2651,-3.5460000000000003,4.75,132.685,None,Oc1c(O)c(Cl)c(Cl)c(Cl)c1Cl
2652,-4.357,3.26,145.751,None,COc1ccc([N+](=O)[O-])c2ccccc12
2653,-3.397,3.01,132.67700000000002,None,O=[N+]([O-])OCCCCCCCO[N+](=O)[O-]
2654,-4.723,3.89,158.974,None,O=[N+]([O-])c1ccc2c(c1)Cc1ccccc1-2
2656,-4.143,3.54,145.161,None,O=[N+]([O-])OCCCCCCCCO[N+](=O)[O-]
2658,-2.256,1.22,159.501,None,Cc1cn(Cc2ccccc2)c(=O)[nH]c1=O
2659,-3.758,3.29,179.757,None,C=CCOC(=O)c1ccccc1C(=O)OCC=C
2660,-3.921,2.89,170.81400000000005,None,CNC(=O)Oc1cc(C)c(SC)c(C)c1
2661,-4.057,-2.89,107.193,None,O=c1[nH]c(=O)c2[nH]c(=O)c(=O)[nH]c2[nH]1
2662,-3.164,1.04,140.518,None,O=C(O)c1ccc([N+](=O)[O-])c2cccnc12
2667,-0.5539999999999999,-0.6,157.972,None,CCOC(=O)N1CC(C)N(C(N)=O)CC1C
2669,-3.216,0.72,132.46,None,O=c1ccc2cc3ccoc3c(O)c2o1
2672,-2.167,1.23,162.915,None,O=C1CCCCCN1C(=O)c1ccccc1
2673,-1.474,1.56,104.497,None,O=C(O)c1ccccc1[N+](=O)[O-]
2674,-2.968,2.3,118.649,None,COC(=O)c1ccc(C(=O)O)cc1
2675,-1.95,1.64,131.13299999999998,None,COC(=O)c1ccccc1C(=O)OC
2676,-2.774,2.48,120.193,None,O=[N+]([O-])OCCCCCCO[N+](=O)[O-]
2677,-3.035,1.8,116.981,None,COC(=O)c1ccc([N+](=O)[O-])cc1
2678,-2.375,2.7,156.101,None,CCOC(=O)c1ccccc1C(=O)OCC
2680,-1.545,1.27,143.871,None,CC=CCC1(C)C(=O)NC(=O)N(C)C1=O
2685,-0.602,-0.34,118.247,None,NNC(=O)c1ccc2c(c1)OCO2
2686,-2.616,1.1,122.683,None,CC1OC(=O)c2cc([N+](=O)[O-])ccc21
2687,-3.855,-3.76,108.305,None,Nc1nc2ncc(=O)[nH]c2c(=O)[nH]1
2688,-1.4069999999999998,0.72,144.915,None,NC(Cc1n[nH]c2ccccc12)C(=O)O
2689,-4.001,4.15,178.46200000000005,None,CCN(CC)c1ccc2c(C)cc(=O)oc2c1
2690,-2.707,-0.43,145.80100000000004,None,Nc1ccc(S(=O)(=O)O)c2ncccc12
2691,-2.5,0.37,145.80100000000004,None,Nc1c(S(=O)(=O)O)ccc2ncccc12
2692,-1.5619999999999998,1.73,122.462,None,COc1ccc(Cl)c(OC)c1O
2693,-1.641,0.69,124.068,None,NC(=O)COC(=O)c1ccccc1
2694,-4.272,3.64,141.444,None,Cc1ccc2ccccc2c1[N+](=O)[O-]
2695,-1.473,0.17,141.925,None,CCC1(CCO)C(=O)NC(=S)NC1=O
2696,-3.6,2.0,144.944,None,COc1c2ccoc2cc2oc(=O)ccc12
2697,-1.694,-0.0312,163.704,None,Nc1ccc(S(=O)(=O)N=C2CC=CN2)cc1
2698,-3.52,1.93,144.944,None,COc1c2occc2cc2ccc(=O)oc12
2699,-4.001,3.24,170.368,None,Cc1cc(=O)n(O)c2ccc3ccccc3c12
2700,-2.237,1.4,149.036,None,CCNC(=O)COC(=O)c1ccccc1
2701,-3.856,3.34,157.579,None,O=[N+]([O-])c1ccc(-c2ccccc2)cc1O
2703,-2.071,1.74,174.00400000000005,None,CCN(CC)C(=O)COC(=O)c1ccccc1
2704,-2.684,2.95,171.558,None,O=C(O)CSC(=S)OCc1ccccc1
2708,-2.528,1.71,144.52700000000004,None,CCCC1(CCC)C(=O)NC(=O)NC1=O
2709,-2.215,0.62,134.109,None,Cc1nc2ccc([N+](=O)[O-])cc2c(=O)[nH]1
2711,-2.55,1.63,135.167,None,CCC1OC(=O)c2cc([N+](=O)[O-])ccc21
2712,-2.39,1.52,144.52700000000004,None,CCC(C)C1(CC)C(=O)NC(=O)NC1=O
2715,-1.672,1.71,144.52700000000004,None,CCCCC1(CC)C(=O)NC(=O)NC1=O
2716,-2.458,1.14,148.261,None,CC1(c2ccccc2)C(=O)NC(=O)NC1=O
2717,-2.119,1.65,156.355,None,C=CCC1(CC(C)C)C(=O)NC(=O)NC1=O
2718,-1.517,1.09,171.985,None,CCOc1ccc(NC(C)=O)c2cccnc12
2719,-1.345,-0.91,138.384,None,CC(=O)c1c(C)ncc(C(=O)O)c1C(=O)O
2720,-1.7280000000000002,0.2,159.76,None,CC(CCC(=O)O)=NNC(=O)c1nccs1
2721,-2.384,0.59,148.515,None,CCc1nc2[nH]c(=O)[nH]c(=O)c2nc1CC
2722,-1.908,1.74,183.881,None,Cc1c(C(C)C)c(=O)n(-c2ccccc2)n1C
2723,-3.824,3.18,128.96,None,O=[N+]([O-])c1ccc2ccccc2c1
2724,-2.297,1.74,129.487,None,CC(=NO)C(=NO)c1ccccc1
2725,-1.19,1.21,134.264,None,Cc1ccccc1OCC(O)CO
2726,-0.7290000000000001,0.57,138.571,None,COc1ccccc1OCC(O)CO
2727,-1.018,-0.02,138.571,None,OCCOc1cccc(OCCO)c1
2728,-2.966,2.59,125.229,None,O=C(O)c1ccc(Br)c([N+](=O)[O-])c1
2729,-2.825,3.61,168.25099999999995,None,CC(=O)CC(C)=NCCN=C(C)CC(C)=O
2730,-1.939,0.22,114.223,None,O=C(NO)c1ccc([N+](=O)[O-])cc1
2731,-2.531,3.04,160.93200000000004,None,CCC(C)c1ccccc1OC(=O)NC
2732,-2.869,0.82,126.707,None,CN(O)C(=O)c1ccc([N+](=O)[O-])cc1
2734,-2.283,1.84,126.707,None,CONC(=O)c1ccc([N+](=O)[O-])cc1
2735,-1.515,1.56,159.755,None,Cc1cc(C)nc(Oc2cc(C)n(C)n2)n1
2736,-1.879,0.42,146.278,None,NC(=O)CNC(=O)OCc1ccccc1
2738,-5.0939999999999985,0.96,175.704,None,COc1ccc2[nH]cc(CCNC(C)=O)c2c1
2744,-1.592,-0.23,161.70600000000005,None,CC(CCC(=O)O)=NNC(=O)c1ccncc1
2745,-2.31,2.51,132.339,None,CC(=O)Nc1ccc(Cl)cc1C
2746,-3.0810000000000004,1.84,171.917,None,O=C(O)c1ccc(NC(=O)c2cccnc2)cc1
2747,-3.383,2.32,177.33599999999996,None,O=C(NC(=O)c1cccnc1)Nc1ccccc1
2748,-2.172,1.83,156.355,None,C=CCC1(CCCC)C(=O)NC(=O)NC1=O
2749,-2.313,1.76,156.355,None,CCC=C(C)C1(CC)C(=O)NC(=O)NC1=O
2750,-2.622,1.05,166.893,None,CC(C)CC1(CCO)C(=O)NC(=S)NC1=O
2751,-0.7659999999999999,-0.38,132.631,None,CCC1(CC(C)=O)C(=O)NC(=O)NC1=O
2752,-3.159,2.76,138.60299999999998,None,CCCOc1ccc([N+](=O)[O-])cc1N
2753,-2.061,2.93,165.83700000000005,None,O=S(=O)(C1CCCCC1)C1CCCCC1
2754,-1.605,0.7,154.409,None,CCCC1(CCO)C(=O)NC(=S)NC1=O
2755,-1.455,2.82,180.564,None,COc1ccc2cc(CCC(C)=O)ccc2c1
2756,-0.762,1.01,149.036,None,CC(C)(NC(=O)c1ccccc1)C(=O)O
2757,-1.579,1.69,104.939,None,O=C(O)c1ccc(F)c([N+](=O)[O-])c1
2758,-3.484,0.43,141.166,None,COc1cc(C#N)c2c(c1OC)C(=O)OC2
2759,-3.112,1.41,122.956,None,COc1ccc(C(=O)O)cc1C(=O)O
2760,-1.987,1.81,122.956,None,COc1cc(C(=O)O)ccc1C(=O)O
2761,-2.334,2.27,180.496,None,O=C(O)C(=O)C(c1ccccc1)c1ccccc1
2762,-2.664,2.05,157.011,None,CCC1(CCC(C)C)C(=O)NC(=O)NC1=O
2763,-3.4810000000000003,2.52,168.668,None,O=C(O)CCC(=O)c1cccc2ccccc12
2764,-2.014,0.94,121.288,None,O=C(O)COc1ccccc1[N+](=O)[O-]
2766,-2.7310000000000003,1.99,172.31900000000005,None,O=C(O)c1ccccc1C(=O)c1ccc(O)cc1
2767,-2.401,0.51,149.624,None,CC(=O)NC(=O)COC(=O)c1ccccc1
2768,-1.966,-0.7,137.997,None,NC(=O)NS(=O)(=O)c1ccc(N)cc1
2769,-1.185,2.05,174.00400000000005,None,CCOC(=O)C(C)(C)NC(=O)c1ccccc1
2770,-2.668,0.92,153.343,None,CCOC(=O)Oc1ccc(NC(C)=O)cc1
2771,-0.745,-0.26,150.28,None,CC1(C(=O)O)NCCc2cc(O)c(O)cc21
2772,-1.914,2.42,167.81,None,CCC(C)(C(=O)O)N1C(=O)c2ccccc2C1=O
2775,-2.528,-0.96,139.539,None,NS(=O)(=O)c1ccc(S(N)(=O)=O)cc1
2776,-1.388,1.77,187.93400000000003,None,COc1ccc(C(O)C(O)c2ccccc2)cc1
2778,-1.096,-0.45,163.069,None,NC(Cc1ccc(O)cc1)C(=O)NCC(=O)O
2779,-0.893,0.64,164.46400000000003,None,COc1ccc(CC2NC(=O)N(C)C2=O)cc1
2782,-0.7290000000000001,0.29,152.553,None,CCOC(=O)N1CCN(C(=O)OCC)CC1
2783,-1.788,0.12,176.03099999999995,None,CCNC(=S)N1CCN(C(=O)OCC)CC1
2785,-0.46,-1.77,132.69,None,CNC(=S)NC1C(=O)NC(=O)NC1=O
2788,-3.656,2.71,160.135,None,CCC1(CC)OC(=O)c2cc([N+](=O)[O-])ccc21
2789,-2.416,2.27,118.061,None,COC(=O)c1ccc(OC)cc1
2790,-4.1560000000000015,4.42,194.65,None,CCCCC(CCCC)(CCCC)C(=O)NO
2791,-3.049,2.61,135.964,None,COC(=O)c1ccc(N(C)C)cc1
2792,-2.14,1.53,122.368,None,COc1cccc(C(=O)O)c1OC
2793,-0.843,-0.4,119.506,None,NS(=O)(=O)c1ccc(NO)cc1
2794,-0.466,2.37,163.733,None,O=S(=O)(O)c1ccc2oc3ccccc3c2c1
2795,-2.727,2.61,164.666,None,O=C(c1ccccc1)N(O)c1ccccc1
2796,-1.4069999999999998,0.78,149.036,None,CC(=O)NC(Cc1ccccc1)C(=O)O
2797,-3.502,2.32,166.351,None,CC(C)c1ccc(NC(=O)N(C)C)cc1
2798,-0.397,1.0,123.544,None,O=C(O)c1ccc(C(=O)O)c(C(=O)O)c1
2799,-0.7440000000000001,2.78,155.231,None,CN(C)C(=O)Nc1ccc(Cl)c(Cl)c1
2800,-1.4680000000000002,-0.22,132.094,None,NC(Cc1ccc(O)c(O)c1)C(=O)O
2801,-1.86,1.61,174.00400000000005,None,CCOC(=O)C(Cc1ccccc1)NC(C)=O
2802,-1.784,2.36,191.319,None,CCN(CC)CC(=O)Nc1c(C)cccc1C
2804,-5.275,3.8,165.605,None,Cc1cc2cc3c(C)cc(=O)oc3c(C)c2o1
2806,-2.97,0.0339,175.532,None,Nc1ccc(S(=O)(=O)Nc2ccccn2)cc1
2813,-2.357,2.18,168.83900000000003,None,C=CCC1(C(C)CCC)C(=O)NC(=O)NC1=O
2814,-3.345,4.24,194.65,None,CCCCC(CC)CC(CC)(CC)C(=O)NO
2815,-5.222,4.42,194.65,None,CCCCCCCCC(CC)(CC)C(=O)NO
2816,-4.0,3.87,194.65,None,CC(C)CC(CC(C)C)(CC(C)C)C(=O)NO
2817,-2.824,4.42,194.65,None,CCCCCCC(CCC)(CCC)C(=O)NO
2818,-4.796,4.42,194.65,None,CCCCCCCCCCC(C)(C)C(=O)NO
2819,-1.157,1.16,122.368,None,O=C(OCCO)c1ccccc1O
2820,-1.783,0.16,122.368,None,COc1cc(C(=O)CO)ccc1O
2821,-2.169,1.23,166.893,None,CCCCC1(CCO)C(=O)NC(=S)NC1=O
2823,-0.679,-0.69,159.63299999999995,None,O=C(O)CC1(O)CC(=O)N(c2ccccc2)C1=O
2824,-3.346,2.82,185.9,None,CCC(CC)(Cc1ccc(C)cc1)C(=O)NO
2825,0.487,-1.07,166.93900000000005,None,CN(C)C(=O)c1cccc(C(=O)N(C)C)c1
2826,-0.912,-0.0905,140.859,None,O=C(NC(CO)C(=O)O)c1ccccc1
2828,-1.766,-1.69,106.752,None,O=c1[nH]cc(NS(=O)(=O)O)c(=O)[nH]1
2829,-2.886,3.01,185.9,None,CCCC(CCC)(C(=O)NO)c1ccccc1
2830,-3.523,2.68,185.9,None,Cc1cc(C)c(CC(C)(C)C(=O)NO)c(C)c1
2832,-2.693,2.15,185.125,None,CCC1(CC)C(=O)N(C)N(c2ccccc2)C1=O
2833,-3.117,2.0,120.7,None,COc1ccc(OC)c([N+](=O)[O-])c1
2837,-2.224,2.13,160.917,None,CCCCCCCCNCC(O)CO
2838,-2.639,2.66,173.40099999999995,None,CCCCCCCCCNCC(O)CO
2839,-3.109,3.19,185.885,None,CCCCCCCCCCNCC(O)CO
2840,-0.962,-0.63,131.506,None,CNCC(O)c1ccc(O)c(O)c1
2841,-1.615,0.84,154.455,None,CC(C)(NC(=O)c1ccccc1)C(N)=O
2842,0.508,-1.9,166.93900000000005,None,CN(C)C(=O)c1ccccc1C(=O)N(C)C
2847,-1.791,0.72,165.05200000000005,None,O=C(O)CN1C(=O)NC(=O)C1Cc1ccccc1
2848,0.266,-0.92,166.93900000000005,None,CN(C)C(=O)c1ccc(C(=O)N(C)C)cc1
2851,-2.873,4.0,132.003,None,COc1c(O)cc(Cl)c(Cl)c1Cl
2852,-0.3670000000000001,-1.62,114.48,None,NC(=O)NC1(O)NC(=O)NC1(O)C(=O)O
2857,-1.5219999999999998,-0.88,178.953,None,Cc1c(NC(N)=O)c(=O)n(-c2ccccc2)n1C
2860,-3.658,3.92,132.003,None,COc1cc(Cl)c(Cl)c(Cl)c1O
2861,-2.911,1.59,162.05700000000004,None,CN1C(=O)NC(=O)C(C)(C2=CCCCC2)C1=O
2862,-2.102,1.82,144.299,None,CC(=O)C(Oc1ccccc1Cl)C(=O)O
2864,-2.937,1.94,124.807,None,O=C1C=Cc2ccccc2C1=NO
2865,-4.37,4.33,144.487,None,COc1cc(Cl)c(Cl)c(Cl)c1OC
2868,-1.48,0.0537,135.44,None,O=C(O)c1ccccc1C(=O)OCCO
2869,-1.545,2.15,165.983,None,O=C(O)CSC(CC(=O)O)c1ccccc1
2875,-3.165,2.76,126.309,None,COC(=O)c1ccc(O)c(Br)c1
2877,-1.644,1.23,161.52,None,CC(CCC(=O)O)NC(=O)c1ccccc1
2880,-1.74,1.36,119.615,None,CC(=O)Nc1ccc(C)cc1F
2881,-1.359,1.93,119.615,None,CC(=O)Nc1ccc(F)cc1C
2882,-3.209,0.72,143.781,None,COc1cc([N+](=O)[O-])c2c(c1OC)C(=O)OC2
2883,-2.873,2.48,118.743,None,COC(=O)c1ccc(O)c(Cl)c1
2884,-3.585,0.98,144.72899999999996,None,CC(=O)CC(C)=Nc1ccc(O)cc1
2885,-0.544,0.26,132.094,None,O=C(NCCO)c1cc(O)ccc1O
2887,-3.851,2.52,168.668,None,O=C(O)CCC(=O)c1ccc2ccccc2c1
2888,-1.598,1.25,126.675,None,COC(=O)c1cc(O)c(OC)c(O)c1
2889,-2.057,0.58,155.929,None,Nc1ccc2c(O)cccc2c1S(=O)(=O)O
2890,0.706,-0.0691,109.884,None,O=C(O)Cc1cc(O)ccc1O
2892,0.298,1.02,134.748,None,CN(C)c1cccc(S(=O)(=O)O)c1
2893,-2.2880000000000003,0.94,122.956,None,COc1c(C(=O)O)cccc1C(=O)O
2894,-2.536,0.42,151.622,None,Nc1ccc2cccc(S(=O)(=O)O)c2c1
2895,-2.747,0.42,151.622,None,Nc1ccc2c(S(=O)(=O)O)cccc2c1
2896,0.009000000000000001,0.0419,153.343,None,CC(=O)NC(Cc1ccc(O)cc1)C(=O)O
2897,-2.169,-0.55,139.539,None,NS(=O)(=O)c1cccc(S(N)(=O)=O)c1
2899,-0.731,-0.4,163.069,None,NCC(=O)NC(Cc1ccc(O)cc1)C(=O)O
2901,-3.553,0.74,144.72899999999996,None,CC(=O)CC(C)=Nc1ccccc1O
2902,-3.2110000000000003,2.22,126.119,None,CCOc1ccc([N+](=O)[O-])cc1N
2903,-3.813,3.99,155.513,None,CCCCCOC(=O)c1ccc(O)cc1
2904,-3.949,4.52,167.997,None,CCCCCCOC(=O)c1ccc(O)cc1
2905,-2.155,-0.84,128.27100000000002,None,NC(=O)c1cccc(S(N)(=O)=O)c1
2906,-3.638,1.75,170.085,None,Nc1ccccc1C=Nc1ccccc1O
2907,-4.073,5.05,180.481,None,CCCCCCCOC(=O)c1ccc(O)cc1
2908,-3.047,0.97,129.917,None,COS(=O)(=O)c1ccc(C(=O)O)cc1
2910,-1.413,-0.0842,146.278,None,NC(C(=O)NCC(=O)O)c1ccccc1
2919,-3.841,0.81,124.807,None,NC1=CC(=O)C(=O)c2ccccc21
2921,-3.0780000000000003,-0.33,136.93200000000002,None,O=C(O)CCP(=O)(O)c1ccccc1
2922,-4.235,3.03,178.545,None,CC(=O)Nc1ccc2c(c1)Cc1ccccc1-2
2923,-0.985,1.78,135.566,None,CC(=O)Nc1cc(Cl)ccc1[N+](=O)[O-]
2924,-1.492,1.2,161.54399999999995,None,N#CCCNC(Cc1ccccc1)C(=O)O
2927,-3.2230000000000003,3.01,131.227,None,CCOC(=O)c1ccc(O)c(Cl)c1
2931,-2.302,-0.83,128.27100000000002,None,NC(=O)c1ccc(S(N)(=O)=O)cc1
2940,-1.408,-1.75,104.636,None,NC1C(O)C(O)C(O)C(O)C1O
2941,-2.7230000000000003,1.31,135.89600000000002,None,O=C(O)C=CC(=O)Nc1ccccc1
2948,-0.66,1.2,165.56099999999995,None,CN(C)CCNC(=O)NC1CCCCC1
2954,-1.3230000000000002,0.97,151.85299999999995,None,NC(=O)SCC(=O)Nc1ccccc1
2957,-0.297,0.0414,138.215,None,CC1C(=O)CCC2C(O)CCC(O)C12
2958,-2.39,1.52,131.455,None,CC(C)C1CCC(=NO)C(=NO)C1
2959,-3.965,2.41,156.423,None,CCC(C)(C)C1CCC(=NO)C(=NO)C1
2961,-1.022,-0.086,144.578,None,CNC(Cc1ccc(O)c(O)c1)C(=O)O
2970,-1.523,1.56,117.705,None,CC1(C)C(=O)C(=O)C2CCC1C2
2971,-1.256,1.43,130.545,None,CCOC(=O)C(O)c1ccccc1
2972,-1.781,0.5,122.012,None,CC12CCC(CC1=O)C2(C)C(=O)O
2973,-2.523,1.52,137.157,None,CC12CCC(C(=NO)C1=NO)C2(C)C
2974,-0.885,0.82,138.094,None,CC(C(=O)O)S(=O)(=O)c1ccccc1
2975,-1.225,0.26,153.343,None,CC(O)C(NC(=O)c1ccccc1)C(=O)O
2976,-1.225,1.36,153.499,None,O=C(O)CSC(C(=O)O)c1ccccc1
2977,0.385,1.24,149.036,None,CC(CC(=O)Nc1ccccc1)C(=O)O
2978,-2.096,2.08,186.488,None,CCN(CC)C(=O)C(C)OC(=O)c1ccccc1
2979,-0.865,0.35,168.481,None,CC(C(=O)N(C)C)S(=O)(=O)c1ccccc1
2980,-1.74,1.33,165.827,None,COC(C)C(NC(=O)c1ccccc1)C(=O)O
2981,-2.158,0.64,153.343,None,O=C(O)CNC(Cc1ccccc1)C(=O)O
2983,-1.795,0.57,152.263,None,CC(NC(=O)c1cccc([N+](=O)[O-])c1)C(=O)O
2984,-2.594,-0.0934,157.65,None,O=C(O)CNC(Cc1ccc(O)cc1)C(=O)O
2996,-1.983,3.29,151.20600000000005,None,Cc1cc(C(=O)CC(C)C)ccc1O
2997,-1.324,1.14,118.971,None,CC1CCC(C)C(=NO)C1=NO
2998,-1.833,1.18,118.971,None,CCC1CCC(=NO)C(=NO)C1
3000,-3.389,3.29,138.793,None,CCOC(=O)c1ccc(O)c(Br)c1
3001,-3.325,2.21,172.843,None,NC(=O)Cc1ccc(-c2ccccc2)cc1
3002,-3.378,3.54,143.711,None,CCCOC(=O)c1ccc(O)c(Cl)c1
3005,-2.798,2.5,137.947,None,C=CCOc1ccc([N+](=O)[O-])cc1N
3006,-1.161,-0.49,133.20600000000002,None,COc1ccc(N(C)C(N)=O)cc1
3008,-1.743,2.01,141.181,None,NC(=O)NN=CCOC1CCCCC1
3009,-1.658,0.0437,145.69,None,CCOc1ccc(N(C)C(N)=O)cc1
3010,-3.818,3.29,151.08700000000005,None,CCCCOc1ccc([N+](=O)[O-])cc1N
3011,-1.526,0.7,134.748,None,COc1ccc(C)cc1S(N)(=O)=O
3012,-3.514,4.07,156.195,None,CCCCOC(=O)c1ccc(O)c(Cl)c1
3014,-3.16,2.69,149.286,None,Cc1cc(Cl)ccc1OCC(O)=S
3015,-3.954,4.61,168.679,None,CCCCCOC(=O)c1ccc(O)c(Cl)c1
3018,-2.657,2.57,138.60299999999998,None,CC(C)Oc1ccc([N+](=O)[O-])cc1N
3019,-3.634,3.14,157.579,None,O=[N+]([O-])c1ccc(O)cc1-c1ccccc1
3020,-1.639,-0.13,143.513,None,CC(C(N)=O)S(=O)(=O)c1ccccc1
3021,-3.953,3.27,157.579,None,O=[N+]([O-])c1c(O)cccc1-c1ccccc1
3022,-1.854,0.58,158.174,None,CCOc1ccc(N(CC)C(N)=O)cc1
3023,-2.685,2.78,149.968,None,OC(=S)COc1ccc(Cl)cc1Cl
3027,-2.997,0.27,155.362,None,COc1cccc(OCC(O)CO)c1OC
3029,-2.015,1.89,140.859,None,CN(C)c1ccc(C(=O)O)cc1C(=O)O
3033,-1.209,0.74,127.263,None,COc1cc(C(=O)O)c(C(=O)O)cc1O
3036,-0.33,0.5,144.265,None,CS(=O)(=O)NS(=O)(=O)C1CCCCC1
3041,-3.458,3.38,174.00400000000005,None,CCCCOC(=O)c1ccc(NC(C)=O)cc1
3047,-1.669,1.46,156.416,None,O=C1CC(c2ccccc2)CC(=O)C1[N+](=O)[O-]
3057,-1.156,0.85,120.7,None,O=[N+]([O-])c1cc(CCO)ccc1O
3058,-2.3,-1.06,167.00599999999997,None,Nc1nc(O)c2ncn(C3C=CC(CO)C3)c2n1
3069,-0.35700000000000004,2.27,127.732,None,Cc1ccc(S(=O)(=O)[N-]Cl)cc1
3070,-2.9610000000000003,2.7,135.628,None,COc1c(Cl)cc(Cl)c(OC)c1O
3071,-1.078,-1.88,136.99200000000002,None,Nc1ncc2ncn(COCCO)c2n1
3076,-4.0,2.27,155.144,None,O=[N+]([O-])c1ccc(-c2nc3cc(F)ccc3[nH]2)o1
3077,-1.265,1.7,141.89600000000004,None,O=S(=O)(O)c1ccc2ccccc2c1
3079,-2.71,4.51,180.676,None,CCCCCCCCCCSC(=N)N
3080,1.128,0.25,122.69,None,CCOC(=O)N1CCN(C)CC1
3081,0.652,0.84,135.174,None,CCOC(=O)N1CC(C)NCC1C
3082,-2.389,3.07,171.48,None,Cc1ccc2nc3ccccc3c(N)c2c1
3083,-1.382,-0.62,136.44799999999998,None,CS(=O)(=O)c1ccc(C(=N)N)cc1
3084,0.024,-2.95,149.261,None,CC1CN(C(=N)N)C(C)CN1C(=N)N
3085,-2.396,2.68,159.438,None,Nc1c2ccccc2nc2ccc(F)cc12
3086,-2.122,2.78,159.438,None,Nc1c2ccccc2nc2cc(F)ccc12
3087,-1.655,2.31,159.438,None,Nc1c2ccccc2nc2c(F)cccc12
3088,-0.949,2.86,159.438,None,Nc1c2ccccc2nc2cccc(F)c12
3089,-1.578,3.41,172.162,None,Nc1c2ccccc2nc2cccc(Cl)c12
3090,-1.5319999999999998,6.11,195.457,None,CCCCCCCCCCN1CCCCC1
3091,-2.424,3.23,172.162,None,Nc1c2ccccc2nc2ccc(Cl)cc12
3092,-1.725,3.33,172.162,None,Nc1c2ccccc2nc2cc(Cl)ccc12
3093,-1.092,2.61,188.561,None,CCN(CC)NC(=O)Nc1c(C)cccc1C
3096,-1.838,2.38,174.707,None,Nc1c2ccccc2nc2cccc([N+](=O)[O-])c12
3097,-0.98,3.38,185.917,None,C1CCC(NCCNC2CCCCC2)CC1
3103,-1.023,-0.85,178.953,None,N=C(N)c1ccc(CCc2ccc(C(=N)N)o2)o1
3106,-2.682,0.55,128.69,None,O=C1c2ccccc2C(=NO)C1[N+](=O)[O-]
3110,-1.206,2.86,206.949,None,c1ccc(CNCCNCc2ccccc2)cc1
3114,-0.942,-0.81,127.159,None,Nc1cc(C(=O)O)cc(S(=O)(=O)O)c1
3115,-2.232,0.43,131.572,None,O=C1C(S(=O)(=O)O)=C([O-])c2ccccc21
3122,-0.493,0.64,147.388,None,CC(Sc1ccccc1)S(=O)(=O)O
3123,-2.103,1.67,160.745,None,CCC1(c2ccccc2)C(=O)NC(=O)NC1=O
3124,-1.531,0.6,147.388,None,O=S(=O)(O)CCSc1ccccc1
3125,-0.805,-2.41,94.842,None,O=C1OC(C(O)CO)C(O)=C1O
3129,-1.224,3.22,190.384,None,CN(C)CC(O)c1ccc(Cl)c2ccccc12
3135,-0.636,0.76,181.123,None,Cc1c(N(C)C)c(=O)n(-c2ccccc2)n1C
3139,-1.089,0.27,146.429,None,Cc1cc(=O)n(-c2ccccc2)n1C
3142,-0.996,1.2,132.339,None,CN(C)C(=O)c1ccc(Cl)cc1
3143,-1.151,0.25,120.722,None,COc1ccc(C(=O)NN)cc1
3145,-3.822,2.13,167.424,None,O=C(c1ccccc1)C(O)c1ccccc1
3146,-0.066,0.37,116.168,None,CCC1(CC)C(=O)N=C([O-])NC1=O
3148,-1.656,1.32,151.622,None,Nc1c(S(=O)(=O)O)ccc2ccccc12
3151,-0.293,-1.21,116.845,None,Cc1cc(O)ccc1S(=O)(=O)O
3152,-3.057,0.38,127.787,None,NC(Cc1ccc(O)cc1)C(=O)O
3153,-1.267,0.4,134.884,None,CN(C)C(=O)c1ccc([N+](=O)[O-])cc1
3154,-2.744,0.73,153.118,None,Nc1cnn(-c2ccccc2)c(=O)c1Cl
3155,-2.88,2.88,201.447,None,C=CCc1ccccc1OCC(O)CNC(C)C
3158,-0.061,-0.61,126.005,None,COC(=O)C(CO)NC(=O)C(Cl)Cl
3166,-2.144,0.64,145.91299999999995,None,CC(=O)OCSc1ncnc2[nH]cnc12
3174,-4.7780000000000005,3.46,184.871,None,COC(=O)C(C)c1ccc2cc(OC)ccc2c1
3176,-2.106,1.23,149.692,None,CCCc1ccn(CCC(=O)O)c(=O)c1
3177,-0.636,0.32,149.692,None,O=C(O)CCCCCn1ccccc1=O
3178,-4.331,0.53,140.503,None,CCOC1=C([N+](=O)[O-])CN(C(C)C)C1=O
3182,-0.903,0.8,167.15400000000002,None,COc1c2occc2c(CN)c2ccc(=O)oc12
3183,-3.187,2.71,197.811,None,CC(NC(=O)Cc1ccccc1)c1ccccc1
3184,-2.681,2.09,143.44899999999996,None,c1cnc2c(c1)ccc1ncccc12
3191,-2.242,-0.48,156.056,None,NC(=S)NS(=O)(=O)c1ccc(N)cc1
3192,-1.256,2.36,183.142,None,CCN(CC)CCOC(=O)c1ccc(N)cc1