Expt,ClogP,Polarizability,Name,smiles
-0.22,0.79,59.428000000000004,methyl acrylate,C=CC(=O)OC
-1.19,1.64,84.479,benzaldehyde,O=Cc1ccccc1
-3.17,3.56,118.197,nonanal,CCCCCCCCC=O
-2.36,3.03,105.713,octanal,CCCCCCCC=O
-1.7,2.5,93.229,heptanal,CCCCCCC=O
-1.3,1.97,80.745,hexanal,CCCCCC=O
-0.85,1.44,68.26100000000001,pentanal,CCCCC=O
-0.01,0.91,55.777,butanal,CCCC=O
0.58,0.37,43.293,propanal,CCC=O
-0.6,-0.24,132.29399999999998,glyceryl triacetate,CC(=O)OCC(COC(C)=O)OC(C)=O
-1.34,1.86,84.464,propyl isopropyl ether,CCCOC(C)C
-0.55,1.33,71.98,ethyl isopropyl ether,CCOC(C)C
-0.06,0.8,59.496,methyl isopropyl ether,COC(C)C
-1.1,1.68,84.464,diisopropyl ether,CC(C)OC(C)C
-0.63,0.65,60.083999999999996,Isopropyl formate,CC(C)OC=O
-0.55,1.06,72.568,isopropyl acetate,CC(=O)OC(C)C
0.57,-0.01,42.637,acrolein,C=CC=O
-2.13,2.85,105.713,2-ethylhexanal,CCCCC(C=O)CC
-1.52,1.78,80.745,2-ethylbutanal,CCC(C=O)CC
0.32,0.51,55.121,2-butenal,CC=CC=O
-2.06,3.17,129.369,citral,CC(C)=CCCC(C)=CC=O
-2.46,2.66,105.057,2-ethyl-2-hexanal,CCCC=C(C=O)CC
-0.43,1.14,88.771,"1,1-diethoxyethane",CCOC(C)OCC
-2.92,1.96,121.863,"naphthalene-1,5-diol",Oc1cccc2c(O)cccc12
-4.73,3.94,159.398,1-anthranol,Oc1c2ccccc2cc2ccccc12
-2.78,4.1,165.537,alizarin,O=C1c2ccccc2C(=O)c2c1ccc(O)c2O
-2.22,2.71,117.556,1-naphthol,Oc1cccc2ccccc12
-4.0,2.53,275.567,hydrocortisone acetate,CC(=O)OCC(=O)C1(O)CCC2C3CCC4=CC(=O)CCC4(C)C3C(=O)CC21C
-3.11,1.44,250.011,cortisone,CC12CCC(=O)C=C1CCC1C2C(=O)CC2(C)C1CCC2(O)C(=O)CO
-5.66,3.86,239.864,ethisterone,C#CC1(O)CCC2C3CCC4=CC(=O)CCC4(C)C3CCC21C
-3.99,4.02,232.044,17-methyltestosterone,CC12CCC(=O)C=C1CCC1C2CCC2(C)C1CCC2(C)O
-4.71,2.89,245.11599999999999,17-a-hydroxyprogesterone,CC(=O)C1(O)CCC2C3CCC4=CC(=O)CCC4(C)C3CCC21C
-5.51,4.27,329.222,hydrocortisone tebutate,CC(C)(C)CC(=O)OCC(=O)C1(O)CCC2C3CCC4=CC(=O)CCC4(C)C3C(O)CC21C
-4.3,2.51,279.286,hydrocortisone 21-acetate,CC(=O)OCC(=O)C1(O)CCC2C3CCC4=CC(=O)CCC4(C)C3C(O)CC21C
-2.97,1.43,253.73,hydrocortisone,CC12CCC(=O)C=C1CCC1C2C(O)CC2(C)C1CCC2(O)C(=O)CO
-4.57,3.38,227.38,norethisterone,C#CC1(O)CCC2C3CCC4=CC(=O)CCC4C3CCC21C
-4.3,4.52,229.787,ethinyl estradiol,C#CC1(O)CCC2C3CCc4cc(O)ccc4C3CCC21C
-4.58,3.81,316.082,prednisolone-21-trimethylacetate,CC(C)(C)C(=O)OCC(=O)C1(O)CCC2C3CCC4=CC(=O)C=CC4(C)C3C(O)CC21C
-4.37,2.58,278.63,prednisolone acetate,CC(=O)OCC(=O)C1(O)CCC2C3CCC4=CC(=O)C=CC4(C)C3C(O)CC21C
-3.21,1.49,253.074,prednisolone,CC12C=CC(=O)C=C1CCC1C2C(O)CC2(C)C1CCC2(O)C(=O)CO
-2.99,1.99,265.558,6-methylprednisolone,CC1CC2C(C(O)CC3(C)C2CCC3(O)C(=O)CO)C2(C)C=CC(=O)C=C12
-4.57,2.06,231.687,norethisterone,C#CC1(O)CCC2C3CCC4=CC(=O)CCC4(O)C3CCC21C
-1.43,2.4,100.682,"2,3-xylenol",Cc1cccc(O)c1C
-2.05,2.86,113.166,"2,4,6-trimethylphenol",Cc1cc(C)c(O)c(C)c1
-1.16,0.91,101.70700000000001,gallic acid,O=C(O)c1cc(O)c(O)c(O)c1
-1.19,2.4,100.682,"2,4-dimethylphenol",Cc1ccc(O)c(C)c1
-1.54,2.4,100.682,"2,5-xylenol",Cc1ccc(C)c(O)c1
-2.22,3.28,125.65,thymol,Cc1ccc(C(C)C)c(O)c1
-2.08,3.28,125.65,carvacrol,Cc1ccc(C(C)C)cc1O
-2.59,3.88,154.925,4-hexylresorcinol,CCCCCCc1ccc(O)cc1O
-1.31,2.4,100.682,"2,6-xylenol",Cc1cccc(C)c1O
-2.39,2.94,141.868,2-phenylphenol,Oc1ccccc1-c1ccccc1
-1.36,2.47,100.682,o-ethylphenol,CCc1ccccc1O
-0.62,1.94,88.198,o-cresol,Cc1ccccc1O
-0.86,1.61,88.786,salicylaldehyde,O=Cc1ccccc1O
-1.82,2.06,93.09299999999999,salicylic acid,O=C(O)c1ccccc1O
0.62,0.88,80.021,"1,2-benzenediol",Oc1ccccc1O
-5.24,3.76,204.452,equilenin,CC12CCc3c(ccc4cc(O)ccc34)C1CCC2=O
-5.28,3.53,205.108,equilin,CC12CCC3C(=CCc4cc(O)ccc43)C1CCC2=O
-3.96,3.69,205.764,estrone,CC12CCC3c4ccc(O)cc4CCC3C1CCC2=O
-1.99,3.17,118.868,"5,6,7,8-tetrahydro-2-naphthol",Oc1ccc2c(c1)CCCC2
-2.28,2.71,117.556,2-naphthol,Oc1ccc2ccccc2c1
-1.41,2.4,100.682,"3,4-xylenol",Cc1ccc(O)cc1C
-1.4,2.4,100.682,"3,5-dimethylphenol",Cc1cc(C)cc(O)c1
-0.68,1.94,88.198,m-cresol,Cc1cccc(O)c1
0.81,0.76,80.021,"1,3-benzenediol",Oc1cccc(O)c1
-3.48,3.2,141.868,p-phenylphenol,Oc1ccc(-c2ccccc2)cc1
-2.82,3.43,183.627,diphenylolpropane,CC(C)(c1ccc(O)cc1)c1ccc(O)cc1
-2.41,3.17,125.65,p-t-butylphenol,CC(C)(C)c1ccc(O)cc1
-0.7,1.94,88.198,p-cresol,Cc1ccc(O)cc1
-4.95,3.97,219.767,dienestrol,C=CC(c1ccc(O)cc1)C(C=C)c1ccc(O)cc1
-4.43,4.98,221.079,hexestrol,CCC(c1ccc(O)cc1)C(CC)c1ccc(O)cc1
-0.96,1.39,88.786,p-hydroxybenzaldehyde,O=Cc1ccc(O)cc1
-1.41,1.42,93.09299999999999,p-hydroxybenzoic acid,O=C(O)c1ccc(O)cc1
-4.07,5.93,220.423,DES,CCC(=C(CC)c1ccc(O)cc1)c1ccc(O)cc1
-4.35,5.93,220.423,DES,CCC(=C(CC)c1ccc(O)cc1)c1ccc(O)cc1
-4.95,5.41,219.767,dienestrol,CC=C(C(=CC)c1ccc(O)cc1)c1ccc(O)cc1
-0.17,0.64,80.021,"1,4-benzenediol",Oc1ccc(O)cc1
0.0,1.48,75.714,phenol,Oc1ccccc1
-1.73,-0.38,151.726,quinhydrone,O=C1C=CC(O)(c2cc(O)ccc2O)C=C1
-2.32,2.71,120.836,borneol,CC1(C)C2CCC1(C)C(O)C2
-4.02,3.48,219.56,testosterone,CC12CCC(=O)C=C1CCC1C2CCC2(C)C(O)CCC12
-4.74,3.75,220.21599999999998,stanolone,CC12CCC3C(CCC4CC(=O)CCC43C)C1CCC2O
-3.37,2.61,295.557,cholic acid,CC(CCC(=O)O)C1CCC2C3C(O)CC4CC(O)CCC4(C)C3CC(O)C12C
-3.95,4.66,291.25,deoxycholic acid,CC(CCC(=O)O)C1CCC2C3CCC4CC(O)CCC4(C)C3CC(O)C12C
-4.35,2.96,295.557,hyocholic acid,CC(CCC(=O)O)C1CCC2C3CC(O)C4CC(O)CCC4(C)C3CC(O)C12C
-4.84,4.13,209.483,alpha-estradiol,CC12CCC3c4ccc(O)cc4CCC3C1CCC2O
-4.95,2.94,213.79,estriol,CC12CCC3c4ccc(O)cc4CCC3C1CC(O)C2O
-3.59,2.08,224.523,hydroxyisoandrosterone,CC12CC(O)C3C(CCC4CC(O)CCC43C)C1CCC2=O
-3.82,5.0,291.25,Hyodesoxycholic acid,CC(CCC(=O)O)C1CCC2C3CC(O)C4CC(O)CCC4(C)C3CCC12C
-4.35,3.82,295.557,hyocholic acid,CC(CCC(=O)O)C1CCC2C3C(O)C(O)C4CC(O)CCC4(C)C3CCC12C
-3.64,4.66,291.25,hyodeoxycholic acid,CC(CCC(=O)O)C1CCC2C3C(O)CC4CC(O)CCC4(C)C3CCC12C
-3.24,1.76,249.423,corticosterone,CC12CCC(=O)C=C1CCC1C2C(O)CC2(C)C(C(=O)CO)CCC12
-3.85,0.73,250.011,aldosterone,CC12CCC(=O)C=C1CCC1C2C(O)CC2(C=O)C(C(=O)CO)CCC12
-4.16,3.75,220.21599999999998,androsterone,CC12CCC3C(CCC4CC(O)CCC43C)C1CCC2=O
-4.12,3.42,219.56,prasterone,CC12CCC3C(CC=C4CC(O)CCC43C)C1CCC2=O
-4.65,4.52,244.528,pregnenolone,CC(=O)C1CCC2C3CC=C4CC(O)CCC4(C)C3CCC12C
-0.44,1.34,77.682,cyclohexanol,OC1CCCCC1
-0.88,1.91,90.166,cycloheptanol,OC1CCCCCC1
-1.29,2.47,102.65,cyclooctanol,OC1CCCCCCC1
-0.88,1.83,90.166,4-methylcyclohexanol,CC1CCC(O)CC1
-2.53,3.2,127.618,menthol,CC1CCC(C(C)C)C(O)C1
-2.47,1.88,260.936,prostaglandin E2,CCCCCC(O)C=CC1C(O)CC(=O)C1CC=CCCCC(=O)O
-0.17,-1.68,94.91,d-quercitol,OC1CC(O)C(O)C(O)C1O
0.35,-2.11,99.21700000000001,d-inositol,OC1C(O)C(O)C(O)C(O)C1O
-2.21,3.03,171.731,benzilic acid,O=C(O)C(O)(c1ccccc1)c1ccccc1
-1.27,2.27,109.432,"2,2,3-trimethyl-3-pentanol",CCC(C)(O)C(C)(C)C
-0.72,1.74,96.948,"2,3,3-trimethyl-2-butanol",CC(C)(C)C(C)(C)O
-1.72,2.63,109.432,2-methyl-2-heptanol,CCCCCC(C)(C)O
-1.6,2.63,109.432,3-methyl-3-heptanol,CCCCC(C)(O)CC
-1.08,2.1,96.948,2-methyl-2-hexanol,CCCCC(C)(C)O
-1.0,2.1,96.948,3-methyl-3-hexanol,CCCC(C)(O)CC
-0.49,1.57,84.464,2-methyl-2-pentanol,CCCC(C)(C)O
-1.99,3.28,133.088,linalool,C=CC(C)(O)CCC=C(C)C
-0.85,2.1,96.948,3-ethyl-3-pentanol,CCC(O)(CC)CC
-0.38,1.57,84.464,3-methyl-3-pentanol,CCC(C)(O)CC
0.08,1.04,71.98,2-ethyl-2-propanol,CCC(C)(C)O
-0.92,1.92,96.948,"2,4-dimethyl-2-pentanol",CC(C)CC(C)(C)O
0.51,-1.72,99.149,citric acid,O=C(O)CC(O)(CC(=O)O)C(=O)O
-0.89,1.92,96.948,"2,3-dimethyl-2-pentanol",CCC(C)C(C)(C)O
-0.85,1.92,96.948,"2,3-dimethyl-3-pentanol",CCC(C)(O)C(C)C
-0.41,1.39,84.464,"2,3-dimethyl-2-butanol",CC(C)C(C)(C)O
-0.29,0.3,92.505,salicyl alcohol,OCc1ccccc1O
-1.2,1.49,100.682,p-methylbenzyl alcohol,Cc1ccc(CO)cc1
-0.4,1.03,88.198,phenylmethanol,OCc1ccccc1
-1.52,2.1,96.948,"2,2-dimethyl-1-pentanol",CCCC(C)(C)CO
-1.04,1.57,84.464,"2,2-dimethyl-1-butanol",CCC(C)(C)CO
-0.4,1.04,71.98,"2,2-dimethyl-1-propanol",CC(C)(C)CO
-0.74,1.36,100.682,2-phenylethanol,OCCc1ccccc1
-0.5,1.57,84.464,"3,3-dimethyl-1-butanol",CC(C)(C)CCO
-1.38,1.88,113.166,3-phenylpropanol,OCCCc1ccccc1
-1.55,2.1,96.948,"4,4-dimethyl-1-pentanol",CC(C)(C)CCCO
-8.4,8.31,234.27200000000002,1-octadecanol,CCCCCCCCCCCCCCCCCCO
-7.26,7.25,209.304,cetyl alcohol,CCCCCCCCCCCCCCCCO
-6.35,6.72,196.82,1-pentadecanol,CCCCCCCCCCCCCCCO
-6.05,6.19,184.33599999999998,myristyl alcohol,CCCCCCCCCCCCCCO
-4.67,5.13,159.368,dodecanol,CCCCCCCCCCCCO
-3.63,4.06,134.4,1-decanol,CCCCCCCCCCO
-3.01,3.53,121.916,1-nonanol,CCCCCCCCCO
-2.39,3.0,109.432,1-octanol,CCCCCCCCO
-1.81,2.47,96.948,1-heptanol,CCCCCCCO
-1.24,1.94,84.464,1-hexanol,CCCCCCO
-0.6,1.41,71.98,1-pentanol,CCCCCO
0.0,0.88,59.496,1-butanol,CCCCO
-0.15,1.02,71.324,4-pentene-1-ol,C=CCCCO
-1.14,1.75,84.464,4-methyl-1-pentanol,CC(C)CCCO
0.62,0.34,47.012,1-propanol,CCCO
-0.72,1.75,84.464,3-methyl-2-pentanol,CCC(C)CCO
-0.52,1.22,71.98,isopentanol,CC(C)CCO
1.1,-0.19,34.528,ethanol,CCO
-0.93,0.28,118.061,dl-tropic acid,O=C(O)C(CO)c1ccccc1
-2.11,2.82,109.432,2-ethyl-1-hexanol,CCCCC(CC)CO
-1.11,1.75,84.464,2-methyl-1-pentanol,CCCC(C)CO
-1.17,1.75,84.464,2-ethyl-1-butanol,CCC(CC)CO
-0.47,1.22,71.98,2-methyl-1-butanol,CCC(C)CO
-1.6,2.1,96.948,"2,4-dimethyl-1-pentanol",CC(C)CC(C)CO
0.04,0.69,59.496,2-methylpropanol,CC(C)CO
-0.39,1.57,84.464,"2,3-dimethylbutanol",CC(C)C(C)CO
-2.46,3.28,133.088,lemonol,CC(C)=CCCC(C)=CCO
-3.75,3.41,245.11599999999999,deoxycorticosterone,CC12CCC(=O)C=C1CCC1C2CCC2(C)C(C(=O)CO)CCC12
1.57,-0.72,22.044,methanol,CO
-2.55,2.74,154.352,benzhydrol,OC(c1ccccc1)c1ccccc1
-2.85,2.13,167.424,benzoin,O=C(c1ccccc1)C(O)c1ccccc1
-1.15,1.92,96.948,"2,2-dimethyl-3-pentanol",CCC(O)C(C)(C)C
-0.62,1.39,84.464,"3,3-dimethyl-2-butanol",CC(O)C(C)(C)C
-2.52,3.03,166.83599999999998,"DL-1,2-diphenylethanol",OC(Cc1ccccc1)c1ccccc1
-2.94,4.41,146.884,2-undecanol,CCCCCCCCCC(C)O
-2.74,3.35,121.916,2-nonanol,CCCCCCCC(C)O
-2.09,2.82,109.432,2-octanol,CCCCCCC(C)O
-1.98,2.82,109.432,3-octanol,CCCCCC(O)CC
-1.55,2.29,96.948,2-heptanol,CCCCCC(C)O
-1.47,2.29,96.948,3-heptanol,CCCCC(O)CC
-0.89,1.75,84.464,2-hexanol,CCCCC(C)O
-1.4,2.29,96.948,4-heptanol,CCCC(O)CCC
-0.8,1.75,84.464,3-hexanol,CCCC(O)CC
-0.29,1.22,71.98,2-pentanol,CCCC(C)O
-0.59,1.58,83.80799999999999,1-Hexene-3-ol,C=CC(O)CCC
-1.38,2.1,96.948,5-methyl-2-hexanol,CC(C)CCC(C)O
-0.24,1.22,71.98,3-pentanol,CCC(O)CC
0.43,0.69,59.496,2-butanol,CCC(C)O
-0.8,1.57,84.464,4-methyl-2-pentanol,CC(C)CC(C)O
1.12,-2.32,55.626000000000005,glycerol,OCC(O)CO
-0.92,1.38,100.682,1-phenylethanol,CC(O)c1ccccc1
0.43,0.16,47.012,2-propanol,CC(C)O
-1.72,2.63,109.432,3-methyl-2-heptanol,CCCCC(C)C(C)O
-0.72,1.57,84.464,3-methyl-2-pentanol,CCC(C)C(C)O
-0.54,1.25,113.73899999999999,"2-ethyl-1,3-hexanediol",CCCC(O)C(CC)CO
-0.7,1.57,84.464,2-methyl-3-pentanol,CCC(O)C(C)C
-0.2,1.04,71.98,3-methyl-2-butanol,CC(C)C(C)O
-1.22,1.92,96.948,"2,4-dimethyl-3-pentanol",CC(C)C(O)C(C)C
-1.93,1.86,171.143,hydrobenzoin,OC(c1ccccc1)C(O)c1ccccc1
0.7,-3.0,72.417,erythritol,OCC(O)C(O)CO
1.09,-4.67,105.999,sorbitol,OCC(O)C(O)C(O)C(O)CO
-3.8,6.54,238.17,abietic acid,CC(C)C1=CC2=CCC3C(C)(C(=O)O)CCCC3(C)C2CC1
-1.42,1.47,133.101,d-camphoric acid,CC1(C(=O)O)CCC(C(=O)O)C1(C)C
-2.28,2.02,172.31900000000002,diphenic acid,O=C(O)c1ccccc1-c1ccccc1C(=O)O
-2.06,2.35,101.27,o-toluic acid,Cc1ccccc1C(=O)O
-2.11,0.81,106.165,o-phthalic acid,O=C(O)c1ccccc1C(=O)O
-2.14,2.35,101.27,m-toluic acid,Cc1cccc(C(=O)O)c1
-2.6,2.35,101.27,p-toluic acid,Cc1ccc(C(=O)O)cc1
-1.55,1.89,88.786,benzoic acid,O=C(O)c1ccccc1
-1.45,1.77,90.75399999999999,cyclohexanecarboxylic acid,O=C(O)C1CCCCC1
-0.29,-0.28,132.29399999999998,l-camphoronic acid,CC(C)(C(=O)O)C(C)(CC(=O)O)C(=O)O
-2.06,2.44,113.098,atropic acid,C=C(C(=O)O)c1ccccc1
0.01,0.83,59.428000000000004,methacrylic acid,C=C(C)C(=O)O
-2.65,2.74,143.112,1-naphthaceneacetic acid,O=C(O)Cc1cccc2ccccc12
-0.89,1.5,101.27,phenylacetic acid,O=C(O)Cc1ccccc1
-1.41,1.84,113.75399999999999,hydrocinnamic acid,O=C(O)CCc1ccccc1
-5.68,8.22,234.86,stearic acid,CCCCCCCCCCCCCCCCCC(=O)O
-6.81,7.15,209.892,palmitic acid,CCCCCCCCCCCCCCCC(=O)O
-4.31,6.62,197.408,pentadecanoic acid,CCCCCCCCCCCCCCC(=O)O
-5.33,6.09,184.924,tetradecanoic acid,CCCCCCCCCCCCCC(=O)O
-4.62,5.03,159.95600000000002,vulvic acid,CCCCCCCCCCCC(=O)O
-3.55,4.5,147.472,undedecanoic acid,CCCCCCCCCCC(=O)O
-3.44,3.97,134.988,caprinic acid,CCCCCCCCCC(=O)O
-3.4,3.99,146.816,undecylic acid,C=CCCCCCCCCC(=O)O
-2.75,3.43,122.50399999999999,pelargonic acid,CCCCCCCCC(=O)O
-1.89,1.33,127.399,azelaic acid,O=C(O)CCCCCCCC(=O)O
-2.3,2.9,110.02,caprylic acid,CCCCCCCC(=O)O
-1.06,1.84,85.052,caproic acid,CCCCCC(=O)O
-0.82,0.079,89.947,adipic acid,O=C(O)CCCCC(=O)O
1.0,-1.04,77.46300000000001,glutaric acid,O=C(O)CCCC(=O)O
-0.19,0.78,60.083999999999996,butyric acid,CCCC(=O)O
-5.06,3.13,192.98,fenbufen,O=C(O)CCC(=O)c1ccc(-c2ccccc2)cc1
-0.2,-0.59,64.979,succinic acid,O=C(O)CCC(=O)O
1.22,-0.29,35.116,acetic acid,CC(=O)O
-3.22,3.25,167.424,diphenylacetic acid,O=C(O)C(c1ccccc1)c1ccccc1
-1.86,2.72,110.02,valproic acid,CCCC(CCC)C(=O)O
-0.81,1.66,85.052,2-ethylbutyric acid,CCC(CC)C(=O)O
-3.7,2.81,192.98,ketoprofen,CC(C(=O)O)c1cccc(C(=O)c2ccccc2)c1
-3.99,3.72,163.69,ibuprofen,CC(C)Cc1ccc(C(C)C(=O)O)cc1
0.28,0.59,60.083999999999996,isobutyric acid,CC(C)C(=O)O
-2.48,2.41,113.098,cinnamic acid,O=C(O)C=Cc1ccccc1
-1.77,1.35,83.74,sorbic acid,CC=CC=CC(=O)O
0.38,-1.19,40.010999999999996,oxalic acid,O=C(O)C(=O)O
-6.7,3.15,285.88,tricresyl phosphate,Cc1cc(O)ccc1OP(=O)(Oc1cc(O)ccc1C)Oc1c(C)cccc1O
-6.01,5.48,272.959,tricresyl phosphate,Cc1ccc(OP(=O)(Oc2cccc(C)c2)Oc2ccccc2C)cc1
0.43,1.08,111.949,triethyl phosphate,CCOP(=O)(OCC)OCC
0.65,-0.45,134.091,azodrin,CNC(=O)C=C(C)OP(=O)(OC)OC
-4.38,4.38,153.145,dibenzothiophene,c1ccc2c(c1)sc1ccccc12
-3.94,2.86,205.218,metiazinic acid,CN1c2ccccc2Sc2ccc(CC(=O)O)cc21
-3.98,2.98,283.09,pericyazine,N#Cc1ccc2c(c1)N(CCCN1CCC(O)CC1)c1ccccc1S2
-4.22,4.51,264.29200000000003,methotrimeprazine,COc1ccc2c(c1)N(CC(C)CN(C)C)c1ccccc1S2
-4.74,4.3,253.203,mepazine,CN1CCCC(CN2c3ccccc3Sc3ccccc32)C1
-4.3,4.09,235.017,promazine,CN(C)CCCN1c2ccccc2Sc2ccccc21
-4.26,3.77,235.017,promethazine,CC(CN1c2ccccc2Sc2ccccc21)N(C)C
-5.41,4.74,235.21200000000002,epitiostanol,CC12CCC3C(CCC4CC5SC5CC43C)C1CCC2O
-2.07,2.28,139.401,tricyclazole,Cc1cccc2sc3nncn3c12
-3.71,3.38,302.988,sufentanil,CCC(=O)N(c1ccccc1)C1(COC)CCN(CCc2cccs2)CC1
-2.59,2.89,94.429,2-ethylthiophene,CCc1cccs1
-2.64,2.51,211.666,methapyrilene,CN(C)CCN(Cc1cccs1)c1ccccn1
-3.14,3.0,175.86,carboxin,CC1=C(C(=O)Nc2ccccc2)SCCO1
-2.43,1.14,177.834,oxycarboxin,CC1=C(C(=O)Nc2ccccc2)S(=O)(=O)CCO1
-1.77,0.0643,87.25,rhodanine,O=C1CSC(=S)N1
-2.13,0.16,121.35600000000001,dazomet,CN1CSC(=S)N(C)C1
-2.39,2.36,81.945,3-methylthiophene,Cc1ccsc1
-1.47,1.5,86.84,thiophene-3-carboxylic acid,O=C(O)c1ccsc1
-1.45,1.9,69.461,thiophene,c1ccsc1
-1.5,2.01,105.48200000000001,benzothiazole,c1ccc2scnc2c1
-3.68,3.96,193.84599999999998,2-(4-aminophenyl)-6-methyl-benzothiazole,Cc1ccc2nc(-c3ccc(N)cc3)sc2c1
-4.87,3.85,223.709,mefenacet,CN(C(=O)COc1nc2ccccc2s1)c1ccccc1
-3.18,2.41,127.848,2-mercaptobenzothiazole,Sc1nc2ccccc2s1
-0.36,0.38,73.366,2-aminothiazole,Nc1nccs1
-1.88,1.46,175.25599999999997,buthidazole,CN1CC(O)N(c2nnc(C(C)(C)C)s2)C1=O
-2.68,2.8,158.941,bentazon,CC(C)N1C(=O)c2ccccc2NS1(=O)=O
-4.16,1.71,222.925,piroxicam,CN1C(C(=O)Nc2ccccn2)=C(O)c2ccccc2S1(=O)=O
-1.64,0.91,111.76299999999999,saccharin,O=C1NS(=O)(=O)c2ccccc21
-6.24,5.96,309.565,abate,COP(=S)(OC)Oc1ccc(Sc2ccc(OP(=S)(OC)OC)cc2)cc1
-4.28,3.12,298.74,spironolactone,CC(=O)SC1CC2=CC(=O)CCC2(C)C2CCC3(C)C(CCC34CCC(=O)O4)C12
-4.71,2.33,212.993,RTI 17,CCN1c2ccccc2N(C)C(=S)c2cccnc21
-4.63,1.76,207.172,RTI 16,CCN1c2ncccc2C(=S)N(C)c2cccnc21
-2.36,-0.93,112.331,1H-pteridine-2-thione,S=c1ncc2nccnc2[nH]1
-2.71,0.37,112.331,8H-pteridine-7-thione,S=c1cnc2cncnc2[nH]1
-3.36,2.99,175.07,thiopental,CCCC(C)C1(CC)C(=O)NC(=S)NC1=O
-3.46,3.14,186.898,thiamylal,C=CCC1(C(C)CCC)C(=O)NC(=S)NC1=O
-0.71,-0.66,74.02199999999999,ethylenethiourea,S=C1NCCN1
-2.77,-0.34,112.331,3H-pteridine-4-thione,S=c1[nH]cnc2nccnc12
-2.26,-0.28,86.43799999999999,2-thiouracil,O=c1cc[nH]c(=S)[nH]1
-2.15,1.37,123.89,propylthiouracil,CCCc1cc(=O)[nH]c(=S)[nH]1
-2.43,0.31,98.92200000000001,methylthiouracil,Cc1cc(=O)[nH]c(=S)[nH]1
-3.93,3.28,195.782,fenothiocarb,CN(C)C(=O)SCCCCOc1ccccc1
-2.58,3.01,102.523,di-n-propylsulfide,CCCSCCC
-3.35,3.9,162.773,pedulate,CCCCN(CC)C(=O)SCCC
-0.42,0.37,104.66,methionine,CSCCC(N)C(=O)O
-1.35,0.26,186.825,cimetidine,CNC(=NC#N)NCCSCc1nc[nH]c1C
-2.09,2.04,170.81400000000002,ethiofencarb,CCSCc1ccccc1OC(=O)NC
-1.34,1.95,77.555,diethyl sulfide,CCSCC
-3.4,3.83,168.475,cycloate,CCSC(=O)N(CC)C1CCCCC1
-3.68,4.06,175.257,butylate,CCSC(=O)N(CC(C)C)CC(C)C
-1.62,2.37,160.60299999999998,thiofanox,CNC(=O)ON=C(CSC)C(C)(C)C
-4.57,3.21,193.56,fenthion,COP(=S)(OC)Oc1ccc(SC)c(C)c1
-2.39,2.7,106.257,thioanisole,CSc1ccccc1
-1.55,-1.08,124.815,7-methylthiopteridine,CSc1cnc2ncncc2n1
-1.76,0.027,124.815,4-methylthiopteridine,CSc1ncc2nccnc2n1
-1.55,-1.08,124.815,7-methylsulfanyl-pteridine,CSc1cnc2cncnc2n1
-2.36,0.0813,124.815,2-methylthiopteridine,CSc1ncnc2nccnc12
-2.68,-0.43,158.18200000000002,simetryn,CSc1nc(N(C)C)nc(N(C)C)n1
-2.93,2.37,199.94099999999997,methoproptryne,COCCCNc1nc(NC(C)C)nc(SC)n1
-4.0,3.44,183.15,terbutryne,CCNc1nc(NC(C)(C)C)nc(SC)n1
-3.04,3.09,170.666,ametryn,CCNc1nc(NC(C)C)nc(SC)n1
-4.1,3.44,183.15,prometryn,CSc1nc(NC(C)C)nc(NC(C)C)n1
-2.25,1.3,152.763,metribuzin,CSc1nnc(C(C)(C)C)c(=O)n1N
-0.45,0.89,52.586999999999996,dimethyl sulfide,CSC
0.11,-0.47,145.94899999999998,oxamyl,CNC(=O)ON=C(SC)C(=O)N(C)C
-2.24,2.64,102.523,diisopropylsulfide,CC(C)SC(C)C
-4.6,4.47,148.711,1-naphthyl isothiocyanate,S=C=Nc1cccc2ccccc12
0.32,-1.05,55.836000000000006,thiourea,NC(N)=S
-1.77,0.73,121.99,1-phenylthiourea,NC(=S)Nc1ccccc1
-1.46,0.72,105.772,"1,3-diethylthiourea",CCNC(=S)NCC
-2.12,2.52,93.773,thiophenol,Sc1ccccc1
-2.71,-1.26,112.331,pteridine-6-thiol,Sc1cnc2ncncc2n1
-2.77,-0.1,112.331,pteridine-2-thiol,Sc1ncc2nccnc2n1
-2.45,-1.39,98.92200000000001,5-methyl-2-thiouracil,Cc1cnc(S)nc1O
-2.26,-1.85,86.43799999999999,2-thiouracil,Oc1ccnc(S)n1
-2.43,-1.39,98.92200000000001,methylthiouracil,Cc1cc(O)nc(S)n1
-2.36,-1.12,112.331,pteridine-4-thiol,Sc1ncnc2nccnc12
-2.27,-0.28,86.43799999999999,thiouracil,O=c1ccnc(S)[nH]1
-0.13,0.93,104.66,pencillamine,CC(C)(S)C(N)C(=O)O
-2.18,2.31,77.555,butanethiol,CCCCS
-0.6,1.25,52.586999999999996,ethanethiol,CCS
-4.71,4.54,295.316,benfuracarb,CCOC(=O)CCN(SN(C)C(=O)Oc1cccc2c1OC(C)(C)C2)C(C)C
-5.59,5.44,236.43400000000003,cyhexatin,[CH]1CCCCC1.[CH]1CCCCC1.[CH]1CCCCC1.[OH]
-1.98,-1.92,237.09900000000002,"sparsomycin (3,8mg/ml)",CSCS(=O)CC(CO)NC(=O)C=Cc1c(C)[nH]c(=O)[nH]c1=O
-2.3,2.23,203.71099999999998,fensulfothion,CCOP(=S)(OCC)Oc1ccc(S(C)=O)cc1
-3.59,-0.13,201.74400000000003,acetyl sulfisoxazole,CC(=O)N(c1onc(C)c1C)S(=O)c1ccc(N)cc1
-2.82,0.94,181.35299999999998,dapsone,Nc1ccc(S(=O)(=O)c2ccc(N)cc2)cc1
0.04,-0.13,79.529,diethyl sulfone,CCS(=O)(=O)CC
-3.59,0.23,206.051,acetyl sulfisoxazole,CC(=O)N(c1onc(C)c1C)S(=O)(=O)c1ccc(N)cc1
-4.16,2.7,220.22,bupirimate,CCCCc1c(C)nc(NCC)nc1OS(=O)(=O)N(C)C
-2.02,0.79,117.95700000000001,2-toluenesulfonamide,Cc1ccccc1S(N)(=O)=O
-1.74,0.79,117.95700000000001,4-toluenesulfonamide,Cc1ccc(S(N)(=O)=O)cc1
-1.36,-0.72,115.199,sulfanilamide,Nc1ccc(S(N)(=O)=O)cc1
-1.61,0.000122,140.755,N-acetylsulfanilamide,CC(=O)Nc1ccc(S(N)(=O)=O)cc1
-1.56,0.33,105.473,benzenesulfonamide,NS(=O)(=O)c1ccccc1
-3.81,2.05,168.82299999999998,ethoxyzolamide,CCOc1ccc2nc(S(N)(=O)=O)sc2c1
-2.36,-0.26,127.167,acetazoleamide,CC(=O)Nc1nnc(S(N)(=O)=O)s1
-1.83,0.13,139.651,methazolamide,CC(=O)N=c1sc(S(N)(=O)=O)nn1C
-2.85,0.34,182.195,sulfamerazine,Cc1ccnc(NS(=O)(=O)c2ccc(N)cc2)n1
-2.27,0.8,194.679,sulfamethazine,Cc1cc(C)nc(NS(=O)(=O)c2ccc(N)cc2)n1
-2.44,1.08,180.495,sulfamoxole,Cc1nc(NS(=O)(=O)c2ccc(N)cc2)oc1C
-2.82,0.34,182.195,sulfaperine,Cc1cnc(NS(=O)(=O)c2ccc(N)cc2)nc1
-2.58,0.42,186.502,sulfameter,COc1cnc(NS(=O)(=O)c2ccc(N)cc2)nc1
-2.7,0.0339,175.532,sulfapyridine,Nc1ccc(S(=O)(=O)Nc2ccccn2)cc1
-3.51,-0.12,169.71099999999998,sulfadiazine,Nc1ccc(S(=O)(=O)Nc2ncccn2)cc1
-3.7,-0.0221,169.71099999999998,sulfapyrazine,Nc1ccc(S(=O)(=O)Nc2cnccn2)cc1
-2.24,-0.43,194.679,sulfisomidine,Cc1cc(NS(=O)(=O)c2ccc(N)cc2)nc(C)n1
-2.54,0.54,198.986,sulfamethomidine,COc1cc(NS(=O)(=O)c2ccc(N)cc2)nc(C)n1
-2.96,1.48,203.293,sulfadimethoxine,COc1cc(NS(=O)(=O)c2ccc(N)cc2)nc(OC)n1
-3.28,0.32,186.502,sulfamethoxypyridazine,COc1ccc(NS(=O)(=O)c2ccc(N)cc2)nn1