,Expt,ClogP,Polarizability,Name,smiles
1091,-1.8,1.63,123.48,m-tolyl methylcarbamate,CNC(=O)Oc1cccc(C)c1
1092,-1.8,1.17,110.996,metolcarb,CNC(=O)Oc1ccccc1
1093,-2.08,2.56,152.607,atratone,CCNc1nc(NC(C)C)nc(OC)n1
1094,-2.48,2.91,165.09099999999995,prometon,COc1nc(NC(C)C)nc(NC(C)C)n1
1095,-0.42,1.05,135.376,ephedrine,CNC(C)C(O)c1ccccc1
1096,-2.27,0.84,173.43099999999995,dibenzamid,O=C(NC(=O)c1ccccc1)c1ccccc1
1097,-0.9,-0.94,63.333,1-acetylurea,CC(=O)NC(N)=O
1098,0.07,1.25,90.859,phenyl hydrazine,NNc1ccccc1
1099,1.34,-1.05,37.189,methyl hydrazine,CNN
1100,0.01,-0.89,98.11,isoniazid,NNC(=O)c1ccncc1
1101,-2.33,0.13,113.657,4-phenylsemicarbazide,NNC(=O)Nc1ccccc1
1102,-2.92,2.94,157.013,hydrazobenzene,c1ccc(NNc2ccccc2)cc1
1103,-2.46,1.03,169.227,isocarboxazid,Cc1cc(C(=O)NNCc2ccccc2)no1
1104,-0.74,0.79,85.44,phenylhydroxylamine,ONc1ccccc1
1105,-3.04,2.4,173.416,ibuproxam,CC(C)Cc1ccc(C(C)C(=O)NO)cc1
1106,1.12,-1.8,42.084,hydroxyurea,NC(=O)NO
1107,-0.2,-1.14,105.092,daminozide,CN(C)NC(=O)CCC(=O)O
1108,-3.75,3.13,154.53799999999995,diphenylnitrosamine,O=NN(c1ccccc1)c1ccccc1
1109,-0.96,0.5,69.99600000000001,1-nitroso-1-ethylurea,CCN(N=O)C(N)=O
1110,-0.85,-0.0309,57.512,1-nitroso-1-methylurea,CN(N=O)C(N)=O
1111,-4.45,3.82,150.231,azobenzene,c1ccc(N=Nc2ccccc2)cc1
1112,-4.45,3.82,150.231,azobenzene,c1ccc(N=Nc2ccccc2)cc1
1114,-4.6,4.12,135.086,dibenzofuran,c1ccc2c(c1)oc1ccccc12
1117,-3.66,1.93,144.944,methoxsalen,COc1c2occc2cc2ccc(=O)oc12
1118,-4.31,3.87,184.871,osthole,COc1ccc2ccc(=O)oc2c1CC=C(C)C
1119,-1.89,1.39,106.316,coumarin,O=c1ccc2ccccc2o1
1124,-5.31,4.38,139.393,dibenzo-p-dioxine,c1ccc2c(c1)Oc1ccccc1O2
1125,-1.64,2.82,120.836,eucalyptol,CC12CCC(CC1)C(C)(C)O2
1128,-3.09,1.6,176.338,santonin,CC1=C2C3OC(=O)C(C)C3CCC2(C)C=CC1=O
1129,-0.27,-0.46,105.658,endothall,O=C(O)C1C2CCC(O2)C1C(=O)O
1134,-1.39,1.6,95.076,phthalic anhydride,O=C1OC(=O)c2ccccc21
1137,0.64,-1.47,99.217,fructose,OCC1OC(O)(CO)C(O)C1O
1138,-0.1,0.73,64.47399999999999,furfural,O=Cc1ccco1
1139,-0.48,0.64,68.781,2-furoic acid,O=C(O)c1ccco1
1140,0.64,-0.33,99.217,fructose,OCC1(O)OCC(O)C(O)C1O
1141,-1.89,0.63,128.07,meconin,COc1ccc2c(c1OC)C(=O)OC2
1143,-1.9,0.54,128.726,meconin,COC1=C(OC)C2C(=O)OCC2C=C1
1144,1.07,-0.76,53.302,gamma-butyrolactone,O=C1CCCO1
1145,0.56,0.33,52.714,tetrahydrofuran,C1CCOC1
1146,-0.03,0.89,65.19800000000001,tetrahydropyran,C1CCOCC1
1147,1.05,-0.83,57.021,3-hydroxytetrahydrofuran,OC1CCOC1
1148,-1.63,1.05,98.795,piperonal,O=Cc1ccc2c(c1)OCO2
1149,-1.6,1.61,93.9,styrene oxide,c1ccc(C2CO2)cc1
1150,-0.59,0.13,40.23,propylene oxide,CC1CO1
1152,0.11,0.82,65.19800000000001,2-methyltetrahydrofuran,CC1CCCO1
1156,-0.82,1.38,51.402,furan,c1ccoc1
1160,0.74,-1.88,99.217,glucose,OCC1OC(O)C(O)C(O)C1O
1161,0.39,-0.83,82.426,L-arabinose,OC1COC(O)C(O)C1O
1164,-1.99,2.13,117.117,camphor,CC12CCC(CC1=O)C2(C)C
1165,-5.19,3.38,156.923,anthraquinone,O=C1c2ccccc2C(=O)c2ccccc21
1166,-1.85,2.13,117.117,d-fenchone,CC12CCC(C1)C(C)(C)C2=O
1174,-1.72,1.19,118.649,acetylsalicylic acid,CC(=O)Oc1ccccc1C(=O)O
1175,-1.06,2.07,110.759,isophorone,CC1=CC(=O)CC(C)(C)C1
1178,-0.6,0.76,73.96300000000002,cyclohexanone,O=C1CCCCC1
1179,-1.87,1.25,86.447,3-methylcyclohexanone,CC1CCCC(=O)C1
1180,-2.06,2.26,122.587,L-carvone,C=C(C)C1CC=C(C)C(=O)C1
1181,-4.11,1.57,166.261,pindone,CC(C)(C)C(=O)C1C(=O)c2ccccc2C1=O
1182,-4.85,5.13,166.83599999999996,ditolyl ether,Cc1cccc(Oc2cccc(C)c2)c1
1183,-0.94,1.25,86.447,2-methylcyclohexanone,CC1CCCCC1=O
1184,-2.18,2.47,123.243,l-dihydrocarvone,C=C(C)C1CCC(C)C(=O)C1
1185,-2.49,2.63,123.899,l-menthone,CC1CCC(C(C)C)C(=O)C1
1186,-3.96,4.21,141.868,diphenyl ether,c1ccc(Oc2ccccc2)cc1
1187,-3.15,3.55,159.247,phenyl salicylate,O=C(Oc1ccccc1)c1ccccc1O
1188,-2.85,3.59,154.94,benzoin,O=C(Oc1ccccc1)c1ccccc1
1189,-0.99,0.27,73.23899999999998,"2,5-cyclohexadiene-1,4-dione",O=C1C=CC(=O)C=C1
1190,-3.03,2.38,127.565,menadione,CC1=CC(=O)c2ccccc2C1=O
1194,-1.67,2.24,103.238,cyclohexanol acetate,CC(=O)OC1CCCCC1
1195,-3.12,3.18,150.63299999999995,benzophenone,O=C(c1ccccc1)c1ccccc1
1196,-1.63,1.57,106.301,"5,5-dimethyl-2,4-hexadione",CC(=O)CC(=O)C(C)(C)C
1197,-0.72,1.07,80.745,"3,3-dimethyl-2-butanone",CC(=O)C(C)(C)C
1198,-3.31,3.56,130.681,2-decanone,CCCCCCCCC(C)=O
1199,-2.58,3.03,118.197,2-nonanone,CCCCCCCC(C)=O
1200,-2.05,2.5,105.713,2-octanone,CCCCCCC(C)=O
1201,-1.42,1.97,93.229,2-heptanone,CCCCCC(C)=O
1202,-2.59,3.03,118.197,5-nonanone,CCCCC(=O)CCCC
1203,-1.56,1.93,106.301,"2,4-octadione",CCCCC(=O)CC(C)=O
1204,-0.8,1.44,80.745,2-hexanone,CCCCC(C)=O
1207,-1.3,1.97,93.229,4-heptanone,CCCC(=O)CCC
1208,-0.83,1.44,80.745,3-Hexanone,CCCC(=O)CC
1209,-0.19,0.91,68.26100000000001,2-pentanone,CCCC(C)=O
1210,-0.83,1.1,80.089,1-hexen-3-one,C=CC(=O)CCC
1211,-1.33,1.78,93.229,5-methyl-2-hexanone,CC(=O)CCC(C)C
1212,-1.83,2.2,109.447,propiophenone,CCC(=O)c1ccccc1
1213,-0.28,0.91,68.26100000000001,3-pentanone,CCC(=O)CC
1214,0.52,0.37,55.777,2-butanone,CCC(C)=O
1215,-1.6,1.75,106.301,"6-methyl-2,4-heptadione",CC(=O)CC(=O)CC(C)C
1216,-1.42,1.25,80.745,4-methyl-2-pentanone,CC(=O)CC(C)C
1217,0.22,0.34,68.84899999999999,"2,4-pentanedione",CC(=O)CC(C)=O
1218,-1.28,1.66,96.963,acetophenone,CC(=O)c1ccccc1
1219,-0.24,1.15,71.98,methyl t-butyl ether,COC(C)(C)C
1220,-0.88,1.75,106.301,"3-propyl-2,4-pentadione",CCCC(C(C)=O)C(C)=O
1221,-0.67,1.25,80.745,3-methyl-2-pentanone,CCC(C)C(C)=O
1222,-0.12,0.72,68.26100000000001,3-methyl-2-butanone,CC(=O)C(C)C
1223,-1.3,1.6,93.229,"2,4-dimethyl-3-pentanone",CC(C)C(=O)C(C)C
1228,-2.46,2.83,110.02,hexyl acetate,CCCCCCOC(C)=O
1230,-1.28,2.83,110.02,ethyl butyrate,CCCCCOC(=O)CC
1231,-1.89,2.3,97.536,amyl acetate,CCCCCOC(C)=O
1232,-1.85,3.11,109.432,dibutyl ether,CCCCOCCCC
1233,-0.99,1.51,71.98,methyl butyl ether,CCCCOC
1234,-1.37,1.36,72.568,butyl acetate,CCCCOC=O
1237,-2.72,3.46,143.029,butyl-p-hydroxybenzoate,CCCCOC(=O)c1ccc(O)cc1
1238,-3.48,3.79,138.722,butyl benzoate,CCCCOC(=O)c1ccccc1
1240,-1.24,1.77,85.052,butyl acetate,CCCCOC(C)=O
1241,-1.62,2.04,84.464,dipropyl ether,CCCOCCC
1242,-0.66,1.51,71.98,ethyl propyl ether,CCCOCC
1243,-0.39,0.98,59.496,methyl propyl ether,CCCOC
1244,-0.49,0.83,60.084,propyl formate,CCCOC=O
1245,-1.78,2.6,139.159,propyl gallate,CCCOC(=O)c1cc(O)c(O)c(O)c1
1246,-2.67,3.26,126.238,propyl benzoate,CCCOC(=O)c1ccccc1
1247,-1.92,2.3,97.536,propyl butyrate,CCCOC(=O)CCC
1248,-0.82,1.77,85.052,methyl butyrate,CCCOC(=O)CC
1249,-0.72,1.24,72.568,propyl acetate,CCCOC(C)=O
1250,-1.52,1.71,85.052,isopentyl formate,CC(C)CCOC=O
1251,-3.16,4.18,155.513,isoamyl salicylate,CC(C)CCOC(=O)c1ccccc1O
1252,-1.92,2.12,97.536,isoamyl acetate,CC(=O)OCCC(C)C
1253,-0.77,0.62,88.771,"1,2-diethoxyethane",CCOCCOCC
1254,-0.71,1.16,104.989,2-phenoxyethanol,OCCOc1ccccc1
1255,-0.42,0.8,88.771,2-butoxyethanol,CCCCOCCO
1256,-2.33,2.67,100.682,phenetole,CCOc1ccccc1
1257,-0.09,0.98,59.496,diethyl ether,CCOCC
1258,-0.85,1.04,58.84,ethyl vinyl ether,C=COCC
1259,0.15,0.3,47.6,ethyl formate,CCOC=O
1260,-2.35,2.7,156.101,diethyl phthalate,CCOC(=O)c1ccccc1C(=O)OCC
1261,-2.35,2.4,118.061,ethyl p-hydroxybenzoate,CCOC(=O)c1ccc(O)cc1
1262,-2.32,2.73,113.754,ethyl benzoate,CCOC(=O)c1ccccc1
1263,-4.1,4.96,159.95600000000005,ethyl caprinate,CCCCCCCCCC(=O)OCC
1264,-3.8,4.43,147.472,ethyl nonanoate,CCCCCCCCC(=O)OCC
1265,-3.39,3.9,134.988,ethyl caprylate,CCCCCCCC(=O)OCC
1266,-2.71,3.37,122.504,ethyl heptylate,CCCCCCC(=O)OCC
1267,-2.31,2.83,110.02,ethyl capronate,CCCCCC(=O)OCC
1268,-1.75,2.3,97.536,ethyl valerate,CCCCC(=O)OCC
1269,-1.28,1.77,85.052,ethyl butyrate,CCCC(=O)OCC
1270,-0.96,1.26,114.915,diethyl succinate,CCOC(=O)CCC(=O)OCC
1271,-0.66,1.24,72.568,ethyl propionate,CCOC(=O)CC
1272,-0.82,0.7,102.431,diethyl malonate,CCOC(=O)CC(=O)OCC
1273,-0.04,0.71,60.084,ethyl acetate,CCOC(C)=O
1274,-0.74,1.32,71.91199999999998,ethyl acrylate,C=CC(=O)OCC
1275,-3.0,2.71,138.066,ethyl cinnamate,CCOC(=O)C=Cc1ccccc1
1276,-3.0,2.71,138.066,ethyl cinnamate,CCOC(=O)C=Cc1ccccc1
1278,-3.13,3.29,179.757,diallyl phthalate,C=CCOC(=O)c1ccccc1C(=O)OCC=C
1279,-1.01,1.18,72.568,isobutyl formate,CC(C)COC=O
1281,-1.21,1.59,85.052,isobutyl acetate,CC(=O)OCC(C)C
1282,-1.21,2.2,96.88,isobutyl acrylate,C=CC(=O)OCC(C)C
1284,-1.1,1.34,105.577,phenoxyacetic acid,O=C(O)COc1ccccc1
1285,0.48,-0.27,51.319,dimethoxymethane,COCOC
1286,-1.92,0.63,135.44,opianic acid,COc1ccc(C=O)c(C(=O)O)c1OC
1287,-1.56,2.2,129.30100000000002,eugenol,C=CCc1ccc(O)c(OC)c1
1288,-2.05,1.33,109.884,vanillic acid,COc1cc(C(=O)O)ccc1O
1289,-1.96,1.19,92.505,o-methoxyphenol,COc1ccccc1O
1290,-4.16,3.0,172.387,naprosyn,COc1ccc2cc(C(C)C(=O)O)ccc2c1
1291,-2.92,3.15,124.994,estragole,C=CCc1ccc(OC)cc1
1292,-1.49,1.7,101.27,p-methoxybenzaldehyde,COc1ccc(C=O)cc1
1293,-3.13,3.17,124.994,anethole,CC=Cc1ccc(OC)cc1
1294,-3.13,3.17,124.994,anethole,CC=Cc1ccc(OC)cc1
1295,-2.41,2.27,118.061,methyl-4-methoxybenzoate,COC(=O)c1ccc(OC)cc1
1296,-1.85,2.13,88.198,anisole,COc1ccccc1
1297,0.58,-0.23,35.116,methyl formate,COC=O
1298,-1.66,1.64,131.13299999999998,dimethyl phthalate,COC(=O)c1ccccc1C(=O)OC
1299,-2.34,2.23,105.577,methyl salicylate,COC(=O)c1ccccc1O
1300,-1.24,1.54,114.191,methyl gallate,COC(=O)c1cc(O)c(O)c(O)c1
1301,-1.78,1.86,105.577,methyl-4-hydroxybenzoate,COC(=O)c1ccc(O)cc1
1302,-1.85,2.2,101.27,methyl benzoate,COC(=O)c1ccccc1
1303,-1.2,1.2,138.14700000000002,dimethyl carbate,COC(=O)C1C2C=CC(C2)C1C(=O)OC
1304,-0.8,1.35,71.91199999999998,methyl methacrylate,C=C(C)C(=O)OC
1305,-4.69,5.49,172.44,methyl laurate,CCCCCCCCCCCC(=O)OC
1306,-4.63,4.43,147.472,methyl caprate,CCCCCCCCCC(=O)OC
1307,-3.38,3.9,134.988,Methyl nonanoate,CCCCCCCCC(=O)OC
1308,-3.39,3.37,122.504,methyl caprylate,CCCCCCCC(=O)OC
1309,-2.0,2.3,97.536,methyl capronate,CCCCCC(=O)OC
1310,-1.36,1.77,85.052,methyl valerate,CCCCC(=O)OC
1311,-0.82,1.24,72.568,methyl butyrate,CCCC(=O)OC
1312,-0.14,0.71,60.084,methyl propionate,CCC(=O)OC
1313,0.52,0.18,47.6,methyl acetate,COC(C)=O
1314,-0.22,0.79,59.428,methyl acrylate,C=CC(=O)OC
1315,-1.19,1.64,84.479,benzaldehyde,O=Cc1ccccc1
1316,-3.17,3.56,118.197,nonanal,CCCCCCCCC=O
1317,-2.36,3.03,105.713,octanal,CCCCCCCC=O
1318,-1.7,2.5,93.229,heptanal,CCCCCCC=O
1319,-1.3,1.97,80.745,hexanal,CCCCCC=O
1320,-0.85,1.44,68.26100000000001,pentanal,CCCCC=O
1321,-0.01,0.91,55.777,butanal,CCCC=O
1322,0.58,0.37,43.293,propanal,CCC=O
1323,-0.6,-0.24,132.29399999999998,glyceryl triacetate,CC(=O)OCC(COC(C)=O)OC(C)=O
1324,-1.34,1.86,84.464,propyl isopropyl ether,CCCOC(C)C
1325,-0.55,1.33,71.98,ethyl isopropyl ether,CCOC(C)C
1326,-0.06,0.8,59.496,methyl isopropyl ether,COC(C)C
1327,-1.1,1.68,84.464,diisopropyl ether,CC(C)OC(C)C
1328,-0.63,0.65,60.084,Isopropyl formate,CC(C)OC=O
1329,-0.55,1.06,72.568,isopropyl acetate,CC(=O)OC(C)C
1330,0.57,-0.01,42.637,acrolein,C=CC=O
1331,-2.13,2.85,105.713,2-ethylhexanal,CCCCC(C=O)CC
1332,-1.52,1.78,80.745,2-ethylbutanal,CCC(C=O)CC
1333,0.32,0.51,55.121,2-butenal,CC=CC=O
1334,-2.06,3.17,129.369,citral,CC(C)=CCCC(C)=CC=O
1335,0.32,0.51,55.121,2-butenal,CC=CC=O
1336,-2.46,2.66,105.057,2-ethyl-2-hexanal,CCCC=C(C=O)CC
1337,-0.43,1.14,88.771,"1,1-diethoxyethane",CCOC(C)OCC
1338,-2.92,1.96,121.863,"naphthalene-1,5-diol",Oc1cccc2c(O)cccc12
1339,-4.73,3.94,159.398,1-anthranol,Oc1c2ccccc2cc2ccccc12
1340,-2.78,4.1,165.537,alizarin,O=C1c2ccccc2C(=O)c2c1ccc(O)c2O
1341,-2.22,2.71,117.556,1-naphthol,Oc1cccc2ccccc12
1357,-1.43,2.4,100.682,"2,3-xylenol",Cc1cccc(O)c1C
1358,-2.05,2.86,113.166,"2,4,6-trimethylphenol",Cc1cc(C)c(O)c(C)c1
1359,-1.16,0.91,101.707,gallic acid,O=C(O)c1cc(O)c(O)c(O)c1
1360,-1.19,2.4,100.682,"2,4-dimethylphenol",Cc1ccc(O)c(C)c1
1361,-1.54,2.4,100.682,"2,5-xylenol",Cc1ccc(C)c(O)c1
1362,-2.22,3.28,125.65,thymol,Cc1ccc(C(C)C)c(O)c1
1363,-2.08,3.28,125.65,carvacrol,Cc1ccc(C(C)C)cc1O
1364,-2.59,3.88,154.925,4-hexylresorcinol,CCCCCCc1ccc(O)cc1O
1365,-1.31,2.4,100.682,"2,6-xylenol",Cc1cccc(C)c1O
1366,-2.39,2.94,141.868,2-phenylphenol,Oc1ccccc1-c1ccccc1
1367,-1.36,2.47,100.682,o-ethylphenol,CCc1ccccc1O
1368,-0.62,1.94,88.198,o-cresol,Cc1ccccc1O
1369,-0.86,1.61,88.786,salicylaldehyde,O=Cc1ccccc1O
1370,-1.82,2.06,93.093,salicylic acid,O=C(O)c1ccccc1O
1371,0.62,0.88,80.021,"1,2-benzenediol",Oc1ccccc1O
1375,-1.99,3.17,118.868,"5,6,7,8-tetrahydro-2-naphthol",Oc1ccc2c(c1)CCCC2
1376,-2.28,2.71,117.556,2-naphthol,Oc1ccc2ccccc2c1
1377,-1.41,2.4,100.682,"3,4-xylenol",Cc1ccc(O)cc1C
1378,-1.4,2.4,100.682,"3,5-dimethylphenol",Cc1cc(C)cc(O)c1
1379,-0.68,1.94,88.198,m-cresol,Cc1cccc(O)c1
1380,0.81,0.76,80.021,"1,3-benzenediol",Oc1cccc(O)c1
1381,-3.48,3.2,141.868,p-phenylphenol,Oc1ccc(-c2ccccc2)cc1
1382,-2.82,3.43,183.627,diphenylolpropane,CC(C)(c1ccc(O)cc1)c1ccc(O)cc1
1383,-2.41,3.17,125.65,p-t-butylphenol,CC(C)(C)c1ccc(O)cc1
1384,-0.7,1.94,88.198,p-cresol,Cc1ccc(O)cc1
1387,-0.96,1.39,88.786,p-hydroxybenzaldehyde,O=Cc1ccc(O)cc1
1388,-1.41,1.42,93.093,p-hydroxybenzoic acid,O=C(O)c1ccc(O)cc1
1392,-0.17,0.64,80.021,"1,4-benzenediol",Oc1ccc(O)cc1
1393,0.0,1.48,75.714,phenol,Oc1ccccc1
1394,-1.73,-0.38,151.726,quinhydrone,O=C1C=CC(O)(c2cc(O)ccc2O)C=C1
1395,-2.32,2.71,120.836,borneol,CC1(C)C2CCC1(C)C(O)C2
1412,-0.44,1.34,77.682,cyclohexanol,OC1CCCCC1
1413,-0.88,1.91,90.166,cycloheptanol,OC1CCCCCC1
1414,-1.29,2.47,102.65,cyclooctanol,OC1CCCCCCC1
1415,-0.88,1.83,90.166,4-methylcyclohexanol,CC1CCC(O)CC1
1416,-2.53,3.2,127.618,menthol,CC1CCC(C(C)C)C(O)C1
1418,-0.17,-1.68,94.91,d-quercitol,OC1CC(O)C(O)C(O)C1O
1419,0.35,-2.11,99.217,d-inositol,OC1C(O)C(O)C(O)C(O)C1O
1420,-2.21,3.03,171.731,benzilic acid,O=C(O)C(O)(c1ccccc1)c1ccccc1
1421,-1.27,2.27,109.432,"2,2,3-trimethyl-3-pentanol",CCC(C)(O)C(C)(C)C
1422,-0.72,1.74,96.948,"2,3,3-trimethyl-2-butanol",CC(C)(C)C(C)(C)O
1423,-1.72,2.63,109.432,2-methyl-2-heptanol,CCCCCC(C)(C)O
1424,-1.6,2.63,109.432,3-methyl-3-heptanol,CCCCC(C)(O)CC
1425,-1.08,2.1,96.948,2-methyl-2-hexanol,CCCCC(C)(C)O
1426,-1.0,2.1,96.948,3-methyl-3-hexanol,CCCC(C)(O)CC
1427,-0.49,1.57,84.464,2-methyl-2-pentanol,CCCC(C)(C)O
1428,-1.99,3.28,133.088,linalool,C=CC(C)(O)CCC=C(C)C
1429,-0.85,2.1,96.948,3-ethyl-3-pentanol,CCC(O)(CC)CC
1430,-0.38,1.57,84.464,3-methyl-3-pentanol,CCC(C)(O)CC
1431,0.08,1.04,71.98,2-ethyl-2-propanol,CCC(C)(C)O
1432,-0.92,1.92,96.948,"2,4-dimethyl-2-pentanol",CC(C)CC(C)(C)O
1433,0.51,-1.72,99.149,citric acid,O=C(O)CC(O)(CC(=O)O)C(=O)O
1434,-0.89,1.92,96.948,"2,3-dimethyl-2-pentanol",CCC(C)C(C)(C)O
1435,-0.85,1.92,96.948,"2,3-dimethyl-3-pentanol",CCC(C)(O)C(C)C
1436,-0.41,1.39,84.464,"2,3-dimethyl-2-butanol",CC(C)C(C)(C)O
1437,-0.29,0.3,92.505,salicyl alcohol,OCc1ccccc1O
1438,-1.2,1.49,100.682,p-methylbenzyl alcohol,Cc1ccc(CO)cc1
1439,-0.4,1.03,88.198,phenylmethanol,OCc1ccccc1
1440,-1.52,2.1,96.948,"2,2-dimethyl-1-pentanol",CCCC(C)(C)CO
1441,-1.04,1.57,84.464,"2,2-dimethyl-1-butanol",CCC(C)(C)CO
1442,-0.4,1.04,71.98,"2,2-dimethyl-1-propanol",CC(C)(C)CO
1443,-0.74,1.36,100.682,2-phenylethanol,OCCc1ccccc1
1444,-0.5,1.57,84.464,"3,3-dimethyl-1-butanol",CC(C)(C)CCO
1445,-1.38,1.88,113.166,3-phenylpropanol,OCCCc1ccccc1
1446,-1.55,2.1,96.948,"4,4-dimethyl-1-pentanol",CC(C)(C)CCCO
1448,-7.26,7.25,209.304,cetyl alcohol,CCCCCCCCCCCCCCCCO
1449,-6.35,6.72,196.82,1-pentadecanol,CCCCCCCCCCCCCCCO
1450,-6.05,6.19,184.336,myristyl alcohol,CCCCCCCCCCCCCCO
1451,-4.67,5.13,159.368,dodecanol,CCCCCCCCCCCCO
1452,-3.63,4.06,134.4,1-decanol,CCCCCCCCCCO
1453,-3.01,3.53,121.916,1-nonanol,CCCCCCCCCO
1454,-2.39,3.0,109.432,1-octanol,CCCCCCCCO
1455,-1.81,2.47,96.948,1-heptanol,CCCCCCCO
1456,-1.24,1.94,84.464,1-hexanol,CCCCCCO
1457,-0.6,1.41,71.98,1-pentanol,CCCCCO
1458,0.0,0.88,59.496,1-butanol,CCCCO
1459,-0.15,1.02,71.324,4-pentene-1-ol,C=CCCCO
1460,-1.14,1.75,84.464,4-methyl-1-pentanol,CC(C)CCCO
1461,0.62,0.34,47.012,1-propanol,CCCO
1462,-0.72,1.75,84.464,3-methyl-2-pentanol,CCC(C)CCO
1463,-0.52,1.22,71.98,isopentanol,CC(C)CCO
1464,1.1,-0.19,34.528,ethanol,CCO
1465,-0.93,0.28,118.061,dl-tropic acid,O=C(O)C(CO)c1ccccc1
1466,-2.11,2.82,109.432,2-ethyl-1-hexanol,CCCCC(CC)CO
1467,-1.11,1.75,84.464,2-methyl-1-pentanol,CCCC(C)CO
1468,-1.17,1.75,84.464,2-ethyl-1-butanol,CCC(CC)CO
1469,-0.47,1.22,71.98,2-methyl-1-butanol,CCC(C)CO
1470,-1.6,2.1,96.948,"2,4-dimethyl-1-pentanol",CC(C)CC(C)CO
1471,0.04,0.69,59.496,2-methylpropanol,CC(C)CO
1472,-0.39,1.57,84.464,"2,3-dimethylbutanol",CC(C)C(C)CO
1473,-2.46,3.28,133.088,lemonol,CC(C)=CCCC(C)=CCO
1475,1.57,-0.72,22.044,methanol,CO
1476,-2.55,2.74,154.352,benzhydrol,OC(c1ccccc1)c1ccccc1
1477,-2.85,2.13,167.424,benzoin,O=C(c1ccccc1)C(O)c1ccccc1
1478,-1.15,1.92,96.948,"2,2-dimethyl-3-pentanol",CCC(O)C(C)(C)C
1479,-0.62,1.39,84.464,"3,3-dimethyl-2-butanol",CC(O)C(C)(C)C
1480,-2.52,3.03,166.83599999999996,"DL-1,2-diphenylethanol",OC(Cc1ccccc1)c1ccccc1
1481,-2.94,4.41,146.884,2-undecanol,CCCCCCCCCC(C)O
1482,-2.74,3.35,121.916,2-nonanol,CCCCCCCC(C)O
1483,-2.09,2.82,109.432,2-octanol,CCCCCCC(C)O
1484,-1.98,2.82,109.432,3-octanol,CCCCCC(O)CC
1485,-1.55,2.29,96.948,2-heptanol,CCCCCC(C)O
1486,-1.47,2.29,96.948,3-heptanol,CCCCC(O)CC
1487,-0.89,1.75,84.464,2-hexanol,CCCCC(C)O
1488,-1.4,2.29,96.948,4-heptanol,CCCC(O)CCC
1489,-0.8,1.75,84.464,3-hexanol,CCCC(O)CC
1490,-0.29,1.22,71.98,2-pentanol,CCCC(C)O
1491,-0.59,1.58,83.80799999999998,1-Hexene-3-ol,C=CC(O)CCC
1492,-1.38,2.1,96.948,5-methyl-2-hexanol,CC(C)CCC(C)O
1493,-0.24,1.22,71.98,3-pentanol,CCC(O)CC
1494,0.43,0.69,59.496,2-butanol,CCC(C)O
1495,-0.8,1.57,84.464,4-methyl-2-pentanol,CC(C)CC(C)O
1496,1.12,-2.32,55.62600000000001,glycerol,OCC(O)CO
1497,-0.92,1.38,100.682,1-phenylethanol,CC(O)c1ccccc1
1498,0.43,0.16,47.012,2-propanol,CC(C)O
1499,-1.72,2.63,109.432,3-methyl-2-heptanol,CCCCC(C)C(C)O
1500,-0.72,1.57,84.464,3-methyl-2-pentanol,CCC(C)C(C)O
1501,-0.54,1.25,113.739,"2-ethyl-1,3-hexanediol",CCCC(O)C(CC)CO
1502,-0.7,1.57,84.464,2-methyl-3-pentanol,CCC(O)C(C)C
1503,-0.2,1.04,71.98,3-methyl-2-butanol,CC(C)C(C)O
1504,-1.22,1.92,96.948,"2,4-dimethyl-3-pentanol",CC(C)C(O)C(C)C
1505,-1.93,1.86,171.143,hydrobenzoin,OC(c1ccccc1)C(O)c1ccccc1
1506,0.7,-3.0,72.417,erythritol,OCC(O)C(O)CO
1507,1.09,-4.67,105.999,sorbitol,OCC(O)C(O)C(O)C(O)CO
1509,-1.42,1.47,133.101,d-camphoric acid,CC1(C(=O)O)CCC(C(=O)O)C1(C)C
1510,-2.28,2.02,172.31900000000005,diphenic acid,O=C(O)c1ccccc1-c1ccccc1C(=O)O
1511,-2.06,2.35,101.27,o-toluic acid,Cc1ccccc1C(=O)O
1512,-2.11,0.81,106.165,o-phthalic acid,O=C(O)c1ccccc1C(=O)O
1513,-2.14,2.35,101.27,m-toluic acid,Cc1cccc(C(=O)O)c1
1514,-2.6,2.35,101.27,p-toluic acid,Cc1ccc(C(=O)O)cc1
1515,-1.55,1.89,88.786,benzoic acid,O=C(O)c1ccccc1
1516,-1.45,1.77,90.754,cyclohexanecarboxylic acid,O=C(O)C1CCCCC1
1517,-0.29,-0.28,132.29399999999998,l-camphoronic acid,CC(C)(C(=O)O)C(C)(CC(=O)O)C(=O)O
1518,-2.06,2.44,113.098,atropic acid,C=C(C(=O)O)c1ccccc1
1519,0.01,0.83,59.428,methacrylic acid,C=C(C)C(=O)O
1520,-2.65,2.74,143.112,1-naphthaceneacetic acid,O=C(O)Cc1cccc2ccccc12
1521,-0.89,1.5,101.27,phenylacetic acid,O=C(O)Cc1ccccc1
1522,-1.41,1.84,113.754,hydrocinnamic acid,O=C(O)CCc1ccccc1
1525,-4.31,6.62,197.408,pentadecanoic acid,CCCCCCCCCCCCCCC(=O)O
1526,-5.33,6.09,184.924,tetradecanoic acid,CCCCCCCCCCCCCC(=O)O
1527,-4.62,5.03,159.95600000000005,vulvic acid,CCCCCCCCCCCC(=O)O
1528,-3.55,4.5,147.472,undedecanoic acid,CCCCCCCCCCC(=O)O
1529,-3.44,3.97,134.988,caprinic acid,CCCCCCCCCC(=O)O
1530,-3.4,3.99,146.816,undecylic acid,C=CCCCCCCCCC(=O)O
1531,-2.75,3.43,122.504,pelargonic acid,CCCCCCCCC(=O)O
1532,-1.89,1.33,127.399,azelaic acid,O=C(O)CCCCCCCC(=O)O
1533,-2.3,2.9,110.02,caprylic acid,CCCCCCCC(=O)O
1534,-1.06,1.84,85.052,caproic acid,CCCCCC(=O)O
1535,-0.82,0.079,89.947,adipic acid,O=C(O)CCCCC(=O)O
1536,1.0,-1.04,77.46300000000002,glutaric acid,O=C(O)CCCC(=O)O
1537,-0.19,0.78,60.084,butyric acid,CCCC(=O)O
1539,-0.2,-0.59,64.979,succinic acid,O=C(O)CCC(=O)O
1540,1.22,-0.29,35.116,acetic acid,CC(=O)O
1541,-3.22,3.25,167.424,diphenylacetic acid,O=C(O)C(c1ccccc1)c1ccccc1
1542,-1.86,2.72,110.02,valproic acid,CCCC(CCC)C(=O)O
1543,-0.81,1.66,85.052,2-ethylbutyric acid,CCC(CC)C(=O)O
1545,-3.99,3.72,163.69,ibuprofen,CC(C)Cc1ccc(C(C)C(=O)O)cc1
1546,0.28,0.59,60.084,isobutyric acid,CC(C)C(=O)O
1547,-2.48,2.41,113.098,cinnamic acid,O=C(O)C=Cc1ccccc1
1548,-1.77,1.35,83.74,sorbic acid,CC=CC=CC(=O)O
1549,-2.48,2.41,113.098,cinnamic acid,O=C(O)C=Cc1ccccc1
1550,-1.77,1.35,83.74,sorbic acid,CC=CC=CC(=O)O