,Expt,ClogP,Polarizability,Name,smiles
0,-4.35,4.22,133.981,1-bromonapthtalene,Brc1cccc2ccccc12
7,-3.5,3.63,112.871,"1,2-dibromobenzene",Brc1ccccc1Br
8,-2.23,3.45,104.623,2-bromotoluene,Cc1ccccc1Br
9,-3.19,3.5,105.305,1-bromo-2-chlorobenzene,Clc1ccccc1Br
10,-2.7,2.95,92.581,o-fluorobromobenzene,Fc1ccccc1Br
11,-4.4,4.22,133.981,2-bromonaphthalene,Brc1ccc2ccccc2c1
13,-3.54,3.72,112.871,"1,3-dibromobenzene",Brc1cccc(Br)c1
14,-3.52,3.45,104.623,m-bromotoluene,Cc1cccc(Br)c1
15,-3.21,3.54,105.305,1-bromo-3-chlorobenzene,Clc1cccc(Br)c1
16,-2.67,3.03,92.581,m-fluorobromobenzene,Fc1cccc(Br)c1
17,-4.07,3.79,112.871,"1,4-dibromobenzene",Brc1ccc(Br)cc1
19,-3.19,3.45,104.623,p-bromotoluene,Cc1ccc(Br)cc1
20,-3.63,3.52,105.305,1-bromo-4-chlorobenzene,Clc1ccc(Br)cc1
22,-3.08,2.29,127.421,4-bromoacetanilide,CC(=O)Nc1ccc(Br)cc1
23,-1.09,2.49,96.446,4-bromophenol,Oc1ccc(Br)cc1
24,-2.55,2.99,92.139,bromobenzene,Brc1ccccc1
25,-2.3,3.21,94.107,bromocyclohexane,BrC1CCCCC1
30,-2.68,1.6,134.001,carbromal,CCC(Br)(CC)C(=O)NC(N)=O
33,-1.17,1.54,59.201,dibromomethane,BrCBr
34,-1.68,2.08,71.685,"1,2-dibromoethane",BrCCBr
35,-2.08,2.56,84.169,"1,3-dibromopropane",BrCCCBr
36,-5.06,4.87,125.857,1-bromooctane,CCCCCCCCBr
37,-4.43,4.34,113.373,1-bromoheptane,CCCCCCCBr
38,-3.81,3.8,100.889,1-bromohexane,CCCCCCBr
39,-3.07,3.27,88.405,1-bromopentane,CCCCCBr
40,-2.37,2.74,75.921,1-bromobutane,CCCCBr
41,-1.85,2.18,76.60300000000002,1-bromo-3-chloropropane,ClCCCBr
42,-1.73,2.21,63.437,1-bromopropane,CCCBr
43,-2.89,3.09,88.405,1-bromo-3-methylbutane,CC(C)CCBr
44,-1.32,1.61,64.119,1-chloro-2-bromoethane,ClCCBr
45,-1.09,1.68,50.953,bromoethane,CCBr
46,-1.5,1.79,62.78100000000001,3-bromopropylene,C=CCBr
47,-2.43,2.56,75.921,1-bromo-2-methylpropane,CC(C)CBr
48,-0.89,1.41,51.635,bromochloromethane,ClCBr
49,-0.79,1.15,38.469,bromomethane,CBr
50,-1.91,2.29,79.933,bromoform,BrC(Br)Br
51,-1.9,2.2,72.367,chlorodibromomethane,ClC(Br)Br
52,-2.38,2.65,97.335,"1,2-dibromo-3-chloropropane",ClCC(Br)CBr
53,-2.15,2.43,84.169,"1,2-dibromopropane",CC(Br)CBr
54,-1.59,2.03,63.437,2-bromopropane,CC(C)Br
55,-1.71,2.3,65.445,halothane,FC(F)(F)C(Cl)Br
56,-1.54,2.02,64.801,bromodichloromethane,ClC(Cl)Br
57,-1.32,2.07,71.029,"1,2-dibromoethylene",BrC=CBr
62,-6.19,5.17,172.62099999999995,pyrene,c1cc2ccc3cccc4ccc(c1)c2c34
66,-5.26,4.68,155.091,phenantherene,c1ccc2c(c1)ccc1ccccc12
70,-6.0,5.17,172.62099999999995,fluoranthene,c1ccc2c(c1)-c1cccc3cccc-2c13
71,-6.74,5.91,196.933,triphenylene,c1ccc2c(c1)c1ccccc1c1ccccc21
72,-8.06,5.91,196.933,chrysene,c1ccc2c(c1)ccc1c3ccccc3ccc21
73,-8.6,5.91,196.933,naphthacene,c1ccc2cc3cc4ccccc4cc3cc2c1
74,-6.35,4.68,155.091,anthracene,c1ccc2cc3ccccc3cc2c1
75,-3.6,3.45,113.249,naphthalene,c1ccc2ccccc2c1
76,-4.48,4.35,98.343,"1,1,3-trimethylcyclopentane",CC1CCC(C)(C)C1
77,-7.11,5.63,203.715,p-terphenyl,c1ccc(-c2ccc(-c3ccccc3)cc2)cc1
78,-4.31,3.98,137.561,biphenyl,c1ccc(-c2ccccc2)cc1
79,-2.82,2.7,95.719,styrene,C=Cc1ccccc1
80,-6.68,5.39,185.105,benzo(a)fluorene,c1ccc2c(c1)Cc1c-2ccc2ccccc12
81,-8.04,5.39,185.105,benzo(b)fluorene,c1ccc2c(c1)Cc1cc3ccccc3cc1-2
82,-5.22,4.62,155.747,1-methylfluorene,Cc1cccc2c1Cc1ccccc1-2
83,-4.91,4.16,143.263,fluorene,c1ccc2c(c1)Cc1ccccc1-2
84,-5.96,5.75,174.58900000000003,"1,2,3,6,7,8-hexahydropyrene",c1cc2c3c(ccc4c3c1CCC4)CCC2
88,-4.63,4.19,131.435,acenaphthene,c1cc2c3c(cccc3c1)CC2
89,-3.04,3.34,102.077,indane,c1ccc2c(c1)CCC2
90,-4.37,3.9,114.561,"1,2,3,4-tetrahydronapthalene",c1ccc2c(c1)CCCC2
91,-2.64,2.82,60.89100000000001,cyclopentane,C1CCCC1
92,-3.1,3.39,73.375,cyclohexane,C1CCCCC1
93,-3.52,3.95,85.859,cycloheptane,C1CCCCCC1
94,-4.15,4.51,98.343,cyclooctane,C1CCCCCCC1
95,-3.27,3.49,85.20299999999997,1-methylcyclohexene,CC1=CCCCC1
96,-2.59,2.89,72.719,cyclohexene,C1=CCCCC1
97,-3.18,3.46,85.20299999999997,cycloheptene,C1=CCCCCC1
98,-2.1,2.33,60.235,cyclopentene,C1=CCCC1
99,-1.97,2.3,72.063,"1,4-cyclohexadiene",C1=CCC=CC1
100,-2.15,2.49,83.891,cycloheptatriene,C1=CC=CCC=C1
101,-6.08,5.44,123.311,pentylcyclopentane,CCCCCC1CCCC1
102,-4.74,4.38,98.343,n-Propylcyclopentane,CCCC1CCCC1
103,-3.3,3.31,73.375,methylcyclopentane,CC1CCCC1
104,-4.25,4.41,98.343,ethylcyclohexane,CCC1CCCCC1
105,-3.85,3.88,85.859,methylcyclohexane,CC1CCCCC1
106,-4.47,4.37,98.343,"1,4-dimethylcyclohexane",CC1CCC(C)CC1
107,-4.0,4.45,121.999,d-limonene,C=C(C)C1CC=C(C)CC1
108,-5.19,4.93,116.529,decalin,C1CCC2CCCCC2C1
109,-4.27,4.37,98.343,"trans-1,2-dimethylcyclohexane",CC1CCCCC1C
110,-1.64,2.22,71.407,benzene,c1ccccc1
111,-3.96,4.27,130.779,acenaphthylene,C1=Cc2cccc3cccc1c23
112,-4.15,4.44,133.827,t-pentylbenzene,CC(C)(C)Cc1ccccc1
113,-4.36,4.11,92.641,"2,2-dimethylpentane",CCCC(C)(C)C
114,-5.05,4.99,117.609,"2,2,5-trimethylhexane",CC(C)CCC(C)(C)C
115,-4.23,4.11,92.641,"3,3-dimethylpentane",CCC(C)(C)CC
116,-4.15,4.44,133.827,t-amylbenzene,CCC(C)(C)c1ccccc1
117,-3.55,3.58,80.157,"2,2-dimethylbutane",CCC(C)(C)C
118,-4.74,4.46,105.125,"2,2,4-trimethylpentane",CC(C)CC(C)(C)C
119,-3.66,3.91,121.343,t-butylbenzene,CC(C)(C)c1ccccc1
120,-4.36,3.93,92.641,"2,2,3-trimethylbutane",CC(C)C(C)(C)C
121,-4.17,4.21,150.045,diphenylmethane,c1ccc(Cc2ccccc2)cc1
122,-0.4,1.32,29.565,ethylene,C=C
123,-4.62,4.7,162.529,bibenzyl,c1ccc(CCc2ccccc2)cc1
124,-3.37,3.74,108.859,n-propylbenzene,CCCc1ccccc1
125,-3.03,3.45,79.501,2-methyl-1-Pentene,C=C(C)CCC
126,-1.64,2.06,63.00899999999999,1-pentyne,C#CCCC
127,-4.64,4.8,133.827,n-pentylbenzene,CCCCCc1ccccc1
128,-3.01,3.12,87.977,1-heptyne,C#CCCCCC
129,-4.24,4.19,112.945,1-nonyne,C#CCCCCCCC
132,-8.4,9.26,204.997,hexadecane,CCCCCCCCCCCCCCCC
133,-7.96,8.19,180.02900000000002,tetradecane,CCCCCCCCCCCCCC
134,-5.88,5.54,117.609,nonane,CCCCCCCCC
135,-5.51,5.56,129.437,1-decene,C=CCCCCCCCC
136,-5.24,5.01,105.125,n-octane,CCCCCCCC
137,-5.05,5.03,116.953,1-nonene,C=CCCCCCCC
138,-5.21,5.34,146.311,n-hexylbenzene,CCCCCCc1ccccc1
139,-3.66,3.65,100.461,1-octyne,C#CCCCCCC
140,-4.53,4.47,92.641,n-heptane,CCCCCCC
141,-4.44,4.5,104.469,1-octene,C=CCCCCCC
142,-3.84,3.94,80.157,n-hexane,CCCCCC
143,-3.73,3.96,91.985,1-heptene,C=CCCCCC
144,-4.06,4.27,121.343,n-butylbenzene,CCCCc1ccccc1
145,-2.36,2.59,75.493,1-hexyne,C#CCCCC
146,-3.18,3.41,67.673,n-pentane,CCCCC
147,-3.23,3.43,79.501,1-hexene,C=CCCCC
148,-3.82,3.96,91.985,trans-2-heptene,CC=CCCCC
149,-2.57,2.88,55.18899999999999,butane,CCCC
150,-2.68,2.9,67.017,1-pentene,C=CCCC
151,-2.68,2.8,78.845,"1,5-hexadiene",C=CCCC=C
152,-4.17,4.44,138.217,1-ethylnaphthalene,CCc1cccc2ccccc12
153,-3.28,4.2,121.343,"1,2-diethylbenzene",CCc1ccccc1CC
154,-3.21,3.67,108.859,1-ethyl-2-methylbenzene,CCc1ccccc1C
155,-6.89,5.67,180.05900000000003,2-ethylanthracene,CCc1ccc2cc3ccccc3cc2c1
156,-4.29,4.44,138.217,2-ethylnaphthalene,CCc1ccc2ccccc2c1
157,-3.75,4.2,121.343,"1,4-diethylbenzene",CCc1ccc(CC)cc1
158,-3.11,3.67,108.859,1-ethyl-4-methylbenzene,CCc1ccc(C)cc1
159,-2.77,3.21,96.375,ethylbenzene,CCc1ccccc1
160,-1.99,2.52,75.493,3-hexyne,CCC#CCC
161,-1.24,1.53,50.525,1-butyne,C#CCC
162,-2.73,2.92,67.017,2-methyl-1-butene,C=C(C)CC
163,-1.94,2.35,42.705,propane,CCC
164,-1.94,2.37,54.533,1-butene,C=CCC
165,-2.54,2.89,67.017,trans-2-pentene,CC=CCC
166,-2.09,2.39,66.361,"1,4-pentadiene",C=CCC=C
168,-6.57,6.37,209.417,6-methylchrysene,Cc1cc2c3ccccc3ccc2c2ccccc12
170,-6.59,6.37,209.417,5-methylchrysene,Cc1cc2ccccc2c2ccc3ccccc3c12
171,-5.85,5.14,167.575,1-methylphenanthrene,Cc1cccc2c1ccc1ccccc12
172,-6.57,5.6,180.05900000000003,"9,10-dimethylanthracene",Cc1c2ccccc2c(C)c2ccccc12
173,-4.92,4.83,150.701,"1,4,5-trimethylnaphthalene",Cc1ccc(C)c2c(C)cccc12
174,-4.14,4.37,138.217,"1,4-dimethylnaphthalene",Cc1ccc(C)c2ccccc12
175,-4.74,4.37,138.217,"1,5-dimethylnaphthalene",Cc1cccc2c(C)cccc12
176,-5.89,5.14,167.575,9-methylanthracene,Cc1c2ccccc2cc2ccccc12
177,-4.29,4.37,138.217,"1,3-dimethylnaphthalene",Cc1cc(C)c2ccccc2c1
178,-3.7,3.91,125.733,1-methylnaphthalene,Cc1cccc2ccccc12
179,-5.23,4.98,146.311,hexamethylbenzene,Cc1c(C)c(C)c(C)c(C)c1C
180,-4.0,4.52,133.827,pentamethylbenzene,Cc1cc(C)c(C)c(C)c1C
181,-4.72,4.37,138.217,"2,3-dimethylnaphthalene",Cc1cc2ccccc2cc1C
182,-4.59,4.06,121.343,"1,2,4,5-tetramethylbenzene",Cc1cc(C)c(C)cc1C
183,-3.31,3.6,108.859,"1,2,4-trimethylbenzene",Cc1ccc(C)c(C)c1
184,-3.2,3.6,108.859,"1,2,3-trimethylbenzene",Cc1cccc(C)c1C
185,-2.8,3.14,96.375,o-xylene,Cc1ccccc1C
186,-5.84,5.14,167.575,2-methylphenanthrene,Cc1ccc2c(ccc3ccccc32)c1
187,-6.96,5.14,167.575,2-methylanthracene,Cc1ccc2cc3ccccc3cc2c1
188,-4.89,4.37,138.217,"2,6-dimethylnaphthalene",Cc1ccc2cc(C)ccc2c1
189,-3.77,3.91,125.733,2-methylnaphthalene,Cc1ccc2ccccc2c1
190,-3.4,3.6,108.859,"1,3,5-trimethylbenzene",Cc1cc(C)cc(C)c1
191,-2.82,3.14,96.375,m-xylene,Cc1cccc(C)c1
192,-4.62,4.44,150.045,4-methylbiphenyl,Cc1ccc(-c2ccccc2)cc1
193,-2.77,3.14,96.375,p-xylene,Cc1ccc(C)cc1
194,-2.21,2.68,83.891,toluene,Cc1ccccc1
195,-0.41,1.0,38.041,propyne,C#CC
196,-2.4,2.97,78.845,"2,3-dimethyl-1,3-butadiene",C=C(C)C(=C)C
197,-2.33,2.39,54.533,2-methylpropene,C=C(C)C
198,-2.03,2.41,66.361,"2-methyl-1,3-butadiene",C=CC(=C)C
199,-2.56,2.91,67.017,2-methy-2-Butene,CC=C(C)C
200,-1.36,1.82,30.221,ethane,CC
201,-1.08,1.84,42.049,propylene,C=CC
202,-0.9,1.09,17.737000000000005,methane,C
203,0.29,0.37,25.557,ethyne,C#C
204,-4.12,4.09,121.343,isobutylbenzene,CC(C)Cc1ccccc1
205,-5.08,4.82,105.125,2-methylheptane,CCCCCC(C)C
206,-5.16,4.82,105.125,3-methylheptane,CCCCC(C)CC
207,-3.74,3.76,80.157,2-methylpentane,CCCC(C)C
208,-3.68,3.76,80.157,3-methylpentane,CCC(C)CC
209,-3.89,4.09,121.343,2-butylbenzene,CCC(C)c1ccccc1
210,-3.18,3.23,67.673,2-methylbutane,CCC(C)C
211,-1.87,1.86,53.877,"1,3-butadiene",C=CC=C
212,-3.24,3.25,79.501,4-methyl-1-pentene,C=CCC(C)C
213,-4.26,4.11,92.641,"2,4-dimethylpentane",CC(C)CC(C)C
214,-3.76,4.02,121.343,2-isopropyltoluene,Cc1ccccc1C(C)C
215,-3.77,4.02,121.343,p-isopropyltoluene,Cc1ccc(C(C)C)cc1
216,-3.27,3.56,108.859,isopropylbenzene,CC(C)c1ccccc1
217,-2.55,2.7,55.18899999999999,2-methylpropane,CC(C)C
218,-2.73,2.72,67.017,3-methyl-1-Butene,C=CC(C)C
219,-4.28,4.11,92.641,"2,3-dimethylpentane",CCC(C)C(C)C
220,-3.65,3.58,80.157,"2,3-dimethylbutane",CC(C)C(C)C
221,-4.8,4.45,105.125,"2,3,4-trimethylpentane",CC(C)C(C)C(C)C
227,-3.93,4.04,126.415,1-chloronaphthalene,Clc1cccc2ccccc12
228,-2.61,2.01,152.81799999999996,benazolin,O=C(O)Cn1c(=O)sc2cccc(Cl)c21
237,-4.98,3.58,139.159,"4,5,7-trichloro-2,1,3-benzothiadiazole",Clc1cc(Cl)c2nsnc2c1Cl
251,-3.1,4.17,128.378,"2,3,4,6-Tetrachlorophenol",Oc1c(Cl)cc(Cl)c(Cl)c1Cl
252,-1.7,2.75,131.909,dicamba,COc1c(Cl)ccc(Cl)c1C(=O)O
260,-5.65,4.6,137.237,pentachlorobenzene,Clc1cc(Cl)c(Cl)c(Cl)c1Cl
261,-3.15,4.39,128.378,"2,3,4,5-tetrachlorophenol",Oc1cc(Cl)c(Cl)c(Cl)c1Cl
265,-2.34,3.58,115.212,"2,4,6-trichlorophenol",Oc1c(Cl)cc(Cl)cc1Cl
272,-4.57,4.18,124.071,"1,2,3,4-tetrachlorobenzene",Clc1ccc(Cl)c(Cl)c1Cl
273,-2.67,3.66,115.212,"2,3,4-trichlorophenol",Oc1ccc(Cl)c(Cl)c1Cl
277,-5.21,4.94,163.893,"2,6-PCB",Clc1cccc(Cl)c1-c1ccccc1
278,-2.1,2.24,114.53,"2,6-dichlorobenzyl alcohol",OCc1c(Cl)cccc1Cl
279,-4.24,2.79,110.835,"2,6-dichlorobenzonitrile",N#Cc1c(Cl)cccc1Cl
280,-1.79,2.61,102.046,"2,6-dichlorophenol",Oc1c(Cl)cccc1Cl
288,-3.37,4.06,128.378,"2,3,5,6-tetrachlorophenol",Oc1c(Cl)c(Cl)cc(Cl)c1Cl
293,-5.56,4.23,124.071,"1,2,4,5-tetrachlorobenzene",Clc1cc(Cl)c(Cl)cc1Cl
297,-2.21,3.71,115.212,"2,4,5-trichlorophenol",Oc1cc(Cl)c(Cl)cc1Cl
302,-2.53,3.25,118.837,"4,5-dichloroquiaiacol",COc1cc(Cl)c(Cl)cc1O
306,-2.8,3.35,113.848,"phenol,4-chloro-3,5-dimethyl-",Cc1cc(O)cc(C)c1Cl
307,-4.63,4.31,124.071,"1,2,3,5-tetrachlorobenzene",Clc1cc(Cl)c(Cl)c(Cl)c1
308,-3.26,2.54,137.328,chloramben methyl ester,COC(=O)c1cc(Cl)cc(N)c1Cl
309,-2.47,2.52,124.844,chloramben,Nc1cc(Cl)cc(C(=O)O)c1Cl
310,-2.67,3.69,115.212,"2,3,5-trichlorophenol",Oc1cc(Cl)cc(Cl)c1Cl
317,-1.57,2.89,101.364,3-methyl-4-chlorophenol,Cc1cc(O)ccc1Cl
322,-3.08,3.1,140.768,chlorfenac,O=C(O)Cc1c(Cl)ccc(Cl)c1Cl
323,-2.64,3.33,115.212,"2,3,6-Trichlorophenol",Oc1c(Cl)ccc(Cl)c1Cl
328,-6.39,4.99,163.893,"3,4-PCB",Clc1ccc(-c2ccccc2)cc1Cl
332,-5.25,5.04,163.893,"2,4-PCB",Clc1ccc(-c2ccccc2)c(Cl)c1
334,-3.59,3.82,110.905,"1,2,4-trichlorobenzene",Clc1ccc(Cl)c(Cl)c1
336,-3.67,3.51,156.877,"2,4-DB",O=C(O)CCCOc1ccc(Cl)cc1Cl
337,-2.51,2.58,131.909,"2,4-D",O=C(O)COc1ccc(Cl)cc1Cl
338,-2.45,2.93,144.393,dichlorprop,CC(Oc1ccc(Cl)cc1Cl)C(=O)O
339,-1.55,2.99,102.046,"2,4-dichlorophenol",Oc1ccc(Cl)cc1Cl
341,-3.24,2.51,107.465,"3,4-dichloroaniline",Nc1ccc(Cl)c(Cl)c1
342,-3.0,3.18,145.505,propanil,CCC(=O)Nc1ccc(Cl)c(Cl)c1
344,-3.46,2.46,154.549,chlorotoluron,Cc1ccc(NC(=O)N(C)C)cc1Cl
345,-3.8,2.78,155.231,diuron,CN(C)C(=O)Nc1ccc(Cl)c(Cl)c1
347,-2.56,1.8,158.856,metoxuron,COc1ccc(NC(=O)N(C)C)cc1Cl
348,-3.52,3.2,159.53799999999995,iinuron,CON(C)C(=O)Nc1ccc(Cl)c(Cl)c1
349,-1.25,3.22,102.046,"3,4-dichlorophenol",Oc1ccc(Cl)c(Cl)c1
354,-4.0,3.77,110.905,"1,2,3-trichlorobenzene",Clc1cccc(Cl)c1Cl
355,-1.3,2.83,102.046,"2,3-dichlorophenol",Oc1cccc(Cl)c1Cl
356,-5.27,4.93,163.893,"2,2´-PCB",Clc1ccccc1-c1ccccc1Cl
357,-5.28,5.02,163.893,"2,4´-PCB",Clc1ccc(-c2ccccc2Cl)cc1
358,-4.54,4.45,150.727,2-chlorobiphenyl,Clc1ccccc1-c1ccccc1
362,-2.34,2.17,167.31599999999997,clomazone,CC1(C)CON(Cc2ccccc2Cl)C1=O
363,-3.52,3.27,97.057,o-chlorotoluene,Cc1ccccc1Cl
364,-3.05,3.28,97.739,"1,2-dichlorobenzene",Clc1ccccc1Cl
366,-1.89,2.04,101.952,o-chlorobenzoic acid,O=C(O)c1ccccc1Cl
367,-1.52,1.91,94.299,2-chloroaniline,Nc1ccccc1Cl
368,-1.4,1.28,119.855,2-chloroacetanilide,CC(=O)Nc1ccccc1Cl
369,-2.16,1.89,118.743,2-chlorophenoxyacetic acid,O=C(O)COc1ccccc1Cl
370,-2.46,2.68,101.364,2-chloroanisole,COc1ccccc1Cl
371,-2.22,2.23,131.227,2-(2-chlorophenoxy)propanoic acid,CC(Oc1ccccc1Cl)C(=O)O
372,-1.06,2.04,88.88,2-chlorophenol,Oc1ccccc1Cl
375,-4.14,4.04,126.415,2-chloronaphthalene,Clc1ccc2ccccc2c1
380,-2.83,2.19,104.896,chlorzoxazone,O=c1[nH]c2cc(Cl)ccc2o1
386,-2.86,3.01,150.24200000000005,chlordimenform,Cc1cc(Cl)ccc1N=CN(C)C
387,-2.23,2.49,131.227,(4-Chloro-2-methylphenoxy)acetic acid,Cc1cc(Cl)ccc1OCC(=O)O
389,-2.55,2.83,143.711,mecoprop,Cc1cc(Cl)ccc1OC(C)C(=O)O
391,-4.48,4.04,110.905,"1,3,5-trichlorobenzene",Clc1cc(Cl)cc(Cl)c1
395,-1.34,3.33,102.046,"3,5-dichlorophenol",Oc1cc(Cl)cc(Cl)c1
396,-5.8,5.11,163.893,"3,3´-PCB",Clc1cccc(-c2cccc(Cl)c2)c1
397,-4.88,4.54,150.727,3-chlorobiphenyl,Clc1cccc(-c2ccccc2)c1
398,-3.04,3.42,97.739,"1,3-dichlorobenzene",Clc1cccc(Cl)c1
400,-2.59,2.9,101.952,m-chlorobenzoic acid,O=C(O)c1cccc(Cl)c1
401,-1.37,1.81,94.299,3-chloroaniline,Nc1cccc(Cl)c1
402,-2.62,3.17,156.95,chlorbufam,C#CC(C)OC(=O)Nc1cccc(Cl)c1
403,-3.38,3.49,149.13,chloropham,CC(C)OC(=O)Nc1cccc(Cl)c1
404,-2.78,2.96,101.364,3-chloroanisole,COc1cccc(Cl)c1
405,-2.22,2.52,131.227,DL-2-(2-Chlorophenoxy)propionic acid,CC(Oc1cccc(Cl)c1)C(=O)O
406,-0.7,2.4,88.88,3-chlorophenol,Oc1cccc(Cl)c1
407,-6.56,5.12,163.893,"4,4´-PCB",Clc1ccc(-c2ccc(Cl)cc2)cc1
408,-5.2,4.55,150.727,4-chlorobiphenyl,Clc1ccc(-c2ccccc2)cc1
412,-3.08,3.27,97.057,p-chlorotoluene,Cc1ccc(Cl)cc1
414,-3.27,3.34,97.739,"1,4-dichlorobenzene",Clc1ccc(Cl)cc1
417,-3.31,2.65,101.952,p-chlorobenzoic acid,O=C(O)c1ccc(Cl)cc1
419,-1.66,1.76,94.299,4-chloroaniline,Nc1ccc(Cl)cc1
420,-2.84,2.05,119.855,4-chloroacetanilide,CC(=O)Nc1ccc(Cl)cc1
421,-2.89,1.89,142.065,monuron,CN(C)C(=O)Nc1ccc(Cl)cc1
422,-3.9,2.61,174.85299999999995,buturon,C#CC(C)N(C)C(=O)Nc1ccc(Cl)cc1
423,-2.57,2.3,146.372,monolinuron,CON(C)C(=O)Nc1ccc(Cl)cc1
425,-2.29,2.03,118.743,4-chlorophenoxyacetic acid,O=C(O)COc1ccc(Cl)cc1
426,-2.78,2.82,101.364,4-chloroanisole,COc1ccc(Cl)cc1
428,-0.7,2.43,88.88,4-chlorophenol,Oc1ccc(Cl)cc1
431,-2.38,2.81,84.573,chlorobenzene,Clc1ccccc1
434,-2.08,-0.3,150.935,tranid,CNC(=O)ON=C1C(Cl)C2CC(C#N)C1C2
437,-0.87,-0.97,103.131,6-chloro-pteridine,Clc1cnc2ncncc2n1
438,-0.87,-0.71,103.131,7-chloro-pteridine,Clc1cnc2cncnc2n1
439,-2.75,2.94,132.189,picloram,Nc1c(Cl)c(Cl)nc(C(=O)O)c1Cl
444,-4.06,3.34,161.466,trietazine,CCNc1nc(Cl)nc(N(CC)CC)n1
445,-3.15,2.19,162.078,cyanazine,CCNc1nc(Cl)nc(NC(C)(C)C#N)n1
446,-4.55,2.28,136.498,simazine,CCNc1nc(Cl)nc(NCC)n1
447,-3.85,2.63,148.982,atrazine,CCNc1nc(Cl)nc(NC(C)C)n1
448,-3.79,3.69,173.95,Ipazine,CCN(CC)c1nc(Cl)nc(NC(C)C)n1
449,-4.43,2.98,161.466,propazine,CC(C)Nc1nc(Cl)nc(NC(C)C)n1
455,-2.87,0.73,153.118,pyrazon,Nc1cnn(-c2ccccc2)c(=O)c1Cl
456,-2.48,1.76,143.965,terbacil,Cc1[nH]c(=O)n(C(C)(C)C)c(=O)c1Cl
459,-4.23,3.29,119.707,pentachlorobutadiene,ClC(Cl)=CC(Cl)=C(Cl)Cl
460,-2.54,2.95,82.229,tetrachloroethylene,ClC(Cl)=C(Cl)Cl
461,-3.39,4.19,168.37400000000005,2-chloroallyl diethyldithiocarbamate,C=C(Cl)CSC(=S)N(CC)CC
462,-2.51,2.73,80.839,2-chloro-2-methylbutane,CCC(C)(C)Cl
463,-1.64,1.77,55.897,"1,1-dichloroethylene",C=C(Cl)Cl
466,-2.69,2.46,94.005,"2,3-dichloro-2-methylbutane",CC(Cl)C(C)(C)Cl
467,-1.96,2.26,69.063,trichloroethylene,ClC=C(Cl)Cl
469,-3.76,2.52,130.734,nitrapyrin,Clc1cccc(C(Cl)(Cl)Cl)n1
470,-3.67,4.47,109.217,hexachloroethane,ClC(Cl)(Cl)C(Cl)(Cl)Cl
471,-2.18,2.48,82.885,"1,1,1,2-tetrachloroethane",ClCC(Cl)(Cl)Cl
472,-2.0,2.1,69.719,"1,1,1-trichloroethane",CC(Cl)(Cl)Cl
476,-2.6,3.2,96.051,pentachloroethane,ClC(Cl)C(Cl)(Cl)Cl
480,-2.31,2.86,70.40100000000002,tetrachloromethane,ClC(Cl)(Cl)Cl
481,-2.17,2.54,70.331,trichloroacetonitrile,N#CC(Cl)(Cl)Cl
484,-2.39,2.49,97.057,alfa-chlorotoluene,ClCc1ccccc1
486,-3.99,4.16,105.807,1-chloroheptane,CCCCCCCCl
487,-3.12,3.63,93.323,1-chlorohexane,CCCCCCCl
488,-2.73,3.09,80.839,1-chloropentane,CCCCCCl
489,-2.03,2.56,68.355,1-chlorobutane,CCCCCl
490,-1.62,2.0,69.03699999999999,"1,3-dichloropropane",ClCCCCl
491,-1.47,2.03,55.871,1-chloropropane,CCCCl
492,-1.06,1.41,56.553,"1,2-dichloroethane",ClCCCl
493,-0.29,0.18,56.483,3-chloropropionitrile,N#CCCCl
494,-1.12,1.19,85.82799999999997,bis-(2-chloroethyl) ether,ClCCOCCCl
495,-1.16,-0.0826,101.554,bis-(2-chloroethyl)-sulfoxide,O=S(CCCl)CCCl
496,-1.5,0.21,105.861,1-chloro-2-(2-chloroethylsulfonyl)ethane,O=S(=O)(CCCl)CCCl
497,-1.06,1.5,43.387,chloroethane,CCCl
498,-1.36,1.65,55.215,3-chloropropylene,C=CCCl
499,-2.0,2.38,68.355,1-chloro-2-methylpropane,CC(C)CCl
500,-0.11,0.66,73.344,"1,3-dichloro-2-propanol",OC(CCl)CCl
502,-0.63,1.19,44.069,dichloromethane,ClCCl
503,-0.09,0.14,43.999,chloroacetonitrile,N#CCCl
507,-2.48,2.28,157.30700000000004,propachlor,CC(C)N(C(=O)CCl)c1ccccc1
508,-0.02,-0.85,53.701,chloroacetamide,NC(=O)CCl
509,0.93,-0.0471,48.282,chloroacetic acid,O=C(O)CCl
510,-1.5,-0.11,93.377,bis-(2.chloroethyl)-sulfone,O=S(=O)(CCl)CCCl
511,-1.75,1.44,42.731,chloroethylene,C=CCl
512,-3.77,2.88,152.57,chlorfenprop-methyl,COC(=O)C(Cl)Cc1ccc(Cl)cc1
513,-2.63,2.91,80.839,2-chloropentane,CCCC(C)Cl
514,-2.63,2.91,80.839,3-chloropentane,CCC(Cl)CC
515,-1.96,2.38,68.355,2-chlorobutane,CCC(C)Cl
516,-1.92,1.96,82.20299999999997,"1,2,3-trichloropropane",ClCC(Cl)CCl
517,-1.6,1.76,69.03699999999999,"1,2-dichloropropane",CC(Cl)CCl
518,-1.41,1.85,55.871,2-chloropropane,CC(C)Cl
519,-2.7,2.11,81.521,"2,3-dichlorobutane",CC(Cl)C(C)Cl
521,-2.4,2.6,81.521,"1,1-dichlorobutane",CCCC(Cl)Cl
522,-1.48,1.68,69.719,"1,1,2-trichloroethane",ClCC(Cl)Cl
524,-1.29,1.53,56.553,"1,1-dichloroethane",CC(Cl)Cl
527,-1.74,2.17,82.885,"1,1,2,2-tetrachloroethane",ClC(Cl)C(Cl)Cl
528,-1.17,1.76,57.235,chloroform,ClC(Cl)Cl
529,-1.62,1.98,140.459,"N,N-diallyldichloroacetamide",C=CCN(CC=C)C(=O)C(Cl)Cl
532,-1.3,1.74,55.897,"1,2-dichloroethylene",ClC=CCl
535,-2.6,1.36,107.851,"1,3-dichloro-5,5-dimethylhydantoin",CC1(C)C(=O)N(Cl)C(=O)N1Cl
538,-2.38,2.46,73.175,"1,2,4,5-tetrafluorobenzene",Fc1cc(F)c(F)cc1F
539,-2.31,2.43,73.175,"1,2,3,5-tetrafluorobenzene",Fc1cc(F)c(F)c(F)c1
541,-4.49,4.12,180.35,flurbiprofen,CC(C(=O)O)c1ccc(-c2ccccc2)c(F)c1
554,-2.0,2.36,72.291,m-difluorobenzene,Fc1cccc(F)c1
555,-2.54,2.54,97.499,p-fluorobenzyl chloride,Fc1ccc(CCl)cc1
557,-1.97,2.39,72.291,p-difluorobenzene,Fc1ccc(F)cc1
558,-1.78,1.47,107.131,4-fluoroacetanilide,CC(=O)Nc1ccc(F)cc1
559,-1.8,2.27,71.84899999999998,fluorobenzene,Fc1ccccc1
560,-1.07,-0.78,68.821,5-fluorouracil,O=c1[nH]cc(F)c(=O)[nH]1
561,-0.97,-1.78,74.24,flucytosine,Nc1nc(=O)[nH]cc1F
562,-3.04,3.19,71.045,"1,1,2-trichlorotrifluoroethane",FC(F)(Cl)C(F)(Cl)Cl
563,-3.12,2.82,58.32100000000001,"1,2-dichlorotetrafluoroethane",FC(F)(Cl)C(F)(F)Cl