Expt,ClogP,Polarizability,Name,smiles
-2.32,1.52,227.1,sulfaphenazole,Nc1ccc(S(=O)(=O)Nc2ccnn2-c2ccccc2)cc1
-2.62,0.89,168.011,sulfamethoxazole,Cc1cc(NS(=O)(=O)c2ccc(N)cc2)no1
-2.91,1.01,180.495,sulfisoxazole,Cc1noc(NS(=O)(=O)c2ccc(N)cc2)c1C
-2.43,0.0467,173.58599999999998,sulfathiozole,Nc1ccc(S(=O)(=O)Nc2nccs2)cc1
-3.74,1.74,217.701,glybuthiazole,CC(C)(C)c1nnc(NS(=O)(=O)c2ccc(N)cc2)s1
-1.94,1.04,192.733,sulfaethidole,CCc1nnc(NS(=O)(=O)c2ccc(N)cc2)s1
-2.41,0.51,180.24900000000002,sulfamethiazole,Cc1nnc(NS(=O)(=O)c2ccc(N)cc2)s1
-4.2,4.22,273.255,bensulide,CC(C)OP(=S)(OC(C)C)SCCNS(=O)(=O)c1ccccc1
-1.99,-1.22,143.416,sulfaguanidine,N=C(N)NS(=O)(=O)c1ccc(N)cc1
-1.23,-0.96,140.755,sulfanilacetamide,CC(=O)NS(=O)(=O)c1ccc(N)cc1
-4.21,2.81,208.877,tolcyclamide,Cc1ccc(S(=O)(=O)NC(=O)NC2CCCCC2)cc1
-2.06,2.44,221.949,acetohexamide,CC(=O)c1ccc(S(=O)(=O)NC(=O)NC2CCCCC2)cc1
-3.39,2.34,190.69099999999997,tolbutamide,CCCCNC(=O)NS(=O)(=O)c1ccc(C)cc1
-2.18,1.01,187.933,carbutamide,CCCCNC(=O)NS(=O)(=O)c1ccc(N)cc1
-3.05,1.88,178.207,phenbutamide,CCCCNC(=O)NS(=O)(=O)c1ccccc1
-3.68,1.71,218.60299999999998,tolazamide,Cc1ccc(S(=O)(=O)NC(=O)NN2CCCCCC2)cc1
-1.66,-0.11,145.062,asulam,COC(=O)NS(=O)(=O)c1ccc(N)cc1
-3.42,2.0,189.274,ethofumesate,CCOC1Oc2ccc(OS(C)(=O)=O)cc2C1(C)C
-0.83,1.19,121.244,allicin,C=CCSS(=O)CC=C
-3.35,3.48,195.975,ditalimfos,CCOP(=S)(OCC)N1C(=O)c2ccccc2C1=O
-3.41,1.61,189.602,propetamphos,CCNP(=S)(OC)OC(C)=CC(=O)OC(C)C
-4.19,4.12,243.928,isofenphos,CCOP(=S)(NC(C)C)Oc1ccccc1C(=O)OC(C)C
-3.64,3.81,209.488,diazinon,CCOP(=S)(OCC)Oc1cc(C)nc(C(C)C)n1
0.54,-0.85,111.04700000000001,acephate,COP(=O)(NC(C)=O)SC
-4.86,4.39,202.78099999999998,phoxim,CCOP(=S)(OCC)ON=C(C#N)c1ccccc1
1.14,0.15,187.65599999999998,vamidothion,CNC(=O)C(C)SCCSP(=O)(OC)OC
-5.14,3.23,241.03,DEF,CCCCSP(=O)(SCCCC)SCCCC
-4.15,4.3,251.47099999999998,piperophos,CCCOP(=S)(OCCC)SCC(=O)N1CCCCC1C
-4.23,3.31,195.40099999999998,disulfoton,CCOP(=S)(OCC)SCCSCC
-2.52,2.31,213.21200000000002,mecarbam,CCOC(=O)N(C)C(=O)CSP(=S)(OCC)OCC
-4.76,4.37,207.885,terbufos,CCOP(=S)(OCC)SCSC(C)(C)C
-4.11,3.67,182.917,phorate,CCOP(=S)(OCC)SCSCC
-5.54,5.07,253.429,ethion,CCOP(=S)(OCC)SCSP(=S)(OCC)OCC
-3.09,2.25,170.433,thiometon,CCSCCSP(=S)(OC)OC
-2.0,1.43,158.969,formothion,COP(=S)(OC)SCC(=O)N(C)C=O
-4.1,2.84,205.857,prometryn,COP(=S)(OC)SCN1C(=O)c2ccccc2C1=O
-3.37,2.93,207.793,malathion,CCOC(=O)CC(SP(=S)(OC)OC)C(=O)OCC
-2.42,2.83,99.921,diethyldisulfide,CCSSCC
-1.44,1.77,74.953,dimethyldisulfide,CSSC
-4.86,3.88,231.571,disulfiram,CCN(CC)C(=S)SSC(=S)N(CC)CC
-3.9,1.75,181.635,thiram,CN(C)C(=S)SSC(=S)N(C)C
-3.96,4.27,130.779,Acenaphthalene  ,C1=Cc2cccc3cccc1c23
1.58,-1.23,40.535,Acetamide  ,CC(N)=O
0.26,-0.45,30.833000000000002,Acetonitrile  ,CC#N
-1.28,1.66,96.963,Acetophenone  ,CC(=O)c1ccccc1
0.97,-0.01,42.637,Acrolein  ,C=CC=O
0.57,-0.01,42.637,Acrylaldehyde  ,C=CC=O
0.98,-0.78,52.363,Acrylamide  ,C=CC(N)=O
0.15,0.19,42.661,Acrylonitrile  ,C=CC#N
-1.89,2.3,97.536,Amyl acetate  ,CCCCCOC(C)=O
-4.15,4.44,133.827,t-Amylbenzene  ,CCC(C)(C)c1ccccc1
-3.76,5.14,216.497,Androstanedione  ,CC12CCCC1C1CCC3CC(=O)C(=O)CC3(C)C1CC2
-1.85,2.13,88.198,Anisole  ,COc1ccccc1
-6.39,4.68,155.091,Anthracene  ,c1ccc2cc3ccccc3cc2c1
-5.19,3.38,156.923,Anthraquinone  ,O=C1c2ccccc2C(=O)c2ccccc21
-1.19,1.64,84.479,Benzaldehyde  ,O=Cc1ccccc1
-0.96,0.74,94.205,Benzamide  ,NC(=O)c1ccccc1
-1.64,2.22,71.407,Benzene  ,c1ccccc1
-6.68,5.39,185.105,Benzo[a]fluorene  ,c1ccc2c(c1)Cc1c-2ccc2ccccc12
-7.82,6.4,214.463,Benzo[a]pyrene  ,c1ccc2c(c1)cc1ccc3cccc4ccc2c1c34
-8.19,6.4,214.463,Benzo[a]pyrene  ,c1ccc2c(c1)cc1ccc3cccc4ccc2c1c34
-8.04,5.39,185.105,Benzo[b]fluorene  ,c1ccc2c(c1)Cc1cc3ccccc3cc1-2
-1.0,1.65,84.50299999999999,Benzonitrile  ,N#Cc1ccccc1
-3.12,3.18,150.63299999999998,Benzophenone  ,O=C(c1ccccc1)c1ccccc1
-5.64,5.0,234.739,Benzyl butyl phthalate  ,CCCCOC(=O)c1ccccc1C(=O)OCc1ccccc1
-3.77,4.42,342.08,Betamethasone  ,CCC(=O)OCC(=O)C1(OC(=O)CC)C(C)CC2C3CCC4=CC(=O)C=CC4(C)C3(F)C(O)CC21C
-4.62,4.7,162.529,Bibenzyl  ,c1ccc(CCc2ccccc2)cc1
-4.31,3.98,137.561,Biphenyl  ,c1ccc(-c2ccccc2)cc1
-2.43,2.56,75.921,1-Bromo-2-methylpropane  ,CC(C)CBr
-1.85,2.18,76.60300000000001,1-Bromo-3-chloropropane  ,ClCCCBr
-2.89,3.09,88.405,1-Bromo-3-methylbutane  ,CC(C)CCBr
-2.18,2.48,109.51799999999999,3-Bromo-4-hydroxybenzaldehyde  ,O=Cc1ccc(O)c(Br)c1
-2.55,2.99,92.139,Bromobenzene  ,Brc1ccccc1
-2.37,2.74,75.921,1-Bromobutane  ,CCCCBr
-3.19,3.5,105.305,2-Bromochlorobenzene  ,Clc1ccccc1Br
-3.21,3.54,105.305,3-Bromochlorobenzene  ,Clc1cccc(Br)c1
-0.89,1.41,51.635,Bromochloromethane  ,ClCBr
-1.54,2.02,64.801,Bromodichloromethane  ,ClC(Cl)Br
-1.09,1.68,50.953,Bromoethane  ,CCBr
-1.73,2.21,63.437,1-Bromopropane  ,CCCBr
-1.59,2.03,63.437,2-Bromopropane  ,CC(C)Br
-3.52,3.45,104.62299999999999,m-Bromotoluene  ,Cc1cccc(Br)c1
-2.95,2.88,55.18899999999999,Butane  ,CCCC
0.0,0.88,59.496,1-Butanol  ,CCCCO
0.43,0.69,59.496,2-Butanol  ,CCC(C)O
-0.42,0.8,88.771,2-Butoxyethanol  ,CCCCOCCO
-1.24,1.77,85.052,Butyl acetate  ,CCCCOC(C)=O
-4.06,4.27,121.34299999999999,Butyl benzene  ,CCCCc1ccccc1
-3.66,3.91,121.34299999999999,t-Butyl benzene  ,CC(C)(C)c1ccccc1
-3.89,4.09,121.34299999999999,2-Butyl benzene  ,CCC(C)c1ccccc1
-0.01,0.91,55.777,Butyraldehyde  ,CCCC=O
-1.88,2.13,117.117,Camphor  ,CC12CCC(CC1=O)C2(C)C
-1.3,1.97,80.745,Caproaldehyde  ,CCCCCC=O
-2.36,3.03,105.713,Caprylaldehyde  ,CCCCCCCC=O
-2.29,2.86,70.40100000000001,Carbon tetrachloride  ,ClC(Cl)(Cl)Cl
-1.32,1.61,64.119,1-Chloro-2-Bromoethane  ,ClCCBr
-2.51,2.73,80.839,2-Chloro-2-methylbutane  ,CCC(C)(C)Cl
-2.0,2.38,68.355,1-Chloro-2-methylpropane  ,CC(C)CCl
-2.92,2.6,100.28399999999999,1-Chloro-4-nitrobenzene  ,O=[N+]([O-])c1ccc(Cl)cc1
-2.46,2.68,101.36399999999999,2-Chloroanisole  ,COc1ccccc1Cl
-2.78,2.96,101.36399999999999,3-Chloroanisole  ,COc1cccc(Cl)c1
-2.78,2.82,101.36399999999999,4-Chloroanisole  ,COc1ccc(Cl)cc1
-2.41,2.81,84.573,Chlorobenzene  ,Clc1ccccc1
-4.54,4.45,150.727,o-Chlorobiphenyl  ,Clc1ccccc1-c1ccccc1
-4.88,4.54,150.727,m-Chlorobiphenyl  ,Clc1cccc(-c2ccccc2)c1
-5.2,4.55,150.727,p-Chlorobiphenyl  ,Clc1ccc(-c2ccccc2)cc1
-2.03,2.56,68.355,1-Chlorobutane  ,CCCCCl
-1.96,2.38,68.355,2-Chlorobutane  ,CCC(C)Cl
-5.87,5.1,152.559,2-Chlorodibenzo-p-dioxin  ,Clc1ccc2c(c1)Oc1ccccc1O2
-1.9,2.2,72.367,Chlorodibromomethane  ,ClC(Br)Br
-4.78,4.59,155.034,2-Chlorodiphenyl ether  ,Clc1ccccc1Oc1ccccc1
-3.12,3.63,93.323,1-Chlorohexane  ,CCCCCCCl
-2.73,3.09,80.839,1-Chloropentane  ,CCCCCCl
-2.63,2.91,80.839,2-Chloropentane  ,CCCC(C)Cl
-2.63,2.91,80.839,3-Chloropentane  ,CCC(Cl)CC
-1.47,2.03,55.871,1-Chloropropane  ,CCCCl
-1.41,1.85,55.871,2-Chloropropane  ,CC(C)Cl
-1.36,1.65,55.215,3-Chloropropylene  ,C=CCCl
-3.52,3.27,97.057,m-Chlorotoluene  ,Cc1cccc(Cl)c1
-3.52,3.27,97.057,o-Chlorotoluene  ,Cc1ccccc1Cl
-3.08,3.27,97.057,p-Chlorotoluene  ,Cc1ccc(Cl)cc1
-7.0,9.85,318.844,Cholesterol  ,CC(C)CCCC(C)C1CCC2C3CC=C4CC(O)CCC4(C)C3CCC12C
-8.06,5.91,196.933,Chrysene  ,c1ccc2c(c1)ccc1c3ccccc3ccc21
-3.24,1.76,249.423,Corticosterone  ,CC12CCC(=O)C=C1CCC1C2C(O)CC2(C)C(C(=O)CO)CCC12
-3.11,1.44,250.011,Cortisone  ,CC12CCC(=O)C=C1CCC1C2C(=O)CC2(C)C1CCC2(O)C(=O)CO
-1.73,1.39,106.316,Coumarin  ,O=c1ccc2ccccc2o1
-1.97,2.3,72.063,"1,4-Cyclohexadiene  ",C1=CCC=CC1
-3.1,3.39,73.375,Cyclohexane  ,C1CCCCC1
-0.44,1.34,77.682,Cyclohexanol  ,OC1CCCCC1
-0.6,0.76,73.96300000000001,Cyclohexanone  ,O=C1CCCCC1
-2.59,2.89,72.719,Cyclohexene  ,C1=CCCCC1
-2.64,2.82,60.891000000000005,Cyclopentane  ,C1CCCC1
-2.1,2.33,60.235,Cyclopentene  ,C1=CCCC1
-11.62,8.1,269.221,Decachlorobiphenyl  ,Clc1c(Cl)c(Cl)c(-c2c(Cl)c(Cl)c(Cl)c(Cl)c2Cl)c(Cl)c1Cl
-12.95,8.6,273.528,Decachlorodiphenyl ether  ,Clc1c(Cl)c(Cl)c(Oc2c(Cl)c(Cl)c(Cl)c(Cl)c2Cl)c(Cl)c1Cl
-6.96,8.71,305.909,Di(2-ethylhexyl) phthalate  ,CCCCC(CC)COC(=O)c1ccccc1C(=O)OCC(CC)CCCC
-4.44,4.12,135.086,Dibenzofuran  ,c1ccc2c(c1)oc1ccccc12
-5.34,4.38,139.393,Dibenzo-p-dioxin  ,c1ccc2c(c1)Oc1ccccc1O2
-5.21,4.38,153.145,Dibenzothiophene  ,c1ccc2c(c1)sc1ccccc12
-3.5,3.63,112.87100000000001,"1,2-Dibromobenzene  ",Brc1ccccc1Br
-3.54,3.72,112.87100000000001,"1,3-Dibromobenzene  ",Brc1cccc(Br)c1
-4.07,3.79,112.87100000000001,"1,4-Dibromobenzene  ",Brc1ccc(Br)cc1
-7.74,5.78,179.025,"4,4'-Dibromobiphenyl  ",Brc1ccc(-c2ccc(Br)cc2)cc1
-1.68,2.08,71.685,"1,2-Dibromoethane  ",BrCCBr
-1.32,2.07,71.029,"1,2-Dibromoethylene  ",BrC=CBr
-1.17,1.54,59.201,Dibromomethane  ,BrCBr
-2.08,2.56,84.169,"1,3-Dibromopropane  ",BrCCCBr
-2.15,2.43,84.169,"1,2-Dibromopropane  ",CC(Br)CBr
-1.85,3.11,109.432,Dibutyl ether  ,CCCCOCCCC
-2.59,3.03,118.197,Dibutylketone  ,CCCCC(=O)CCCC
-2.69,2.46,94.005,"2,3-DiChloro-2-methylbutane  ",CC(Cl)C(C)(C)Cl
-0.11,0.66,73.344,"1,3-DiChloro-2-propanol  ",OC(CCl)CCl
-3.31,3.38,114.53,"2,3-Dichloroanisole  ",COc1cccc(Cl)c1Cl
-3.1,3.24,114.53,"2,6-Dichloroanisole  ",COc1c(Cl)cccc1Cl
-3.02,3.28,97.73899999999999,"1,2-Dichlorobenzene  ",Clc1ccccc1Cl
-3.07,3.42,97.73899999999999,"1,3-Dichlorobenzene  ",Clc1cccc(Cl)c1
-3.31,3.34,97.73899999999999,"1,4-Dichlorobenzene  ",Clc1ccc(Cl)cc1
-5.25,5.04,163.893,"2,4-Dichlorobiphenyl  ",Clc1ccc(-c2ccccc2)c(Cl)c1
-6.56,5.12,163.893,"4,4'-Dichlorobiphenyl  ",Clc1ccc(-c2ccc(Cl)cc2)cc1
-5.27,4.93,163.893,"2,2'-Dichlorobiphenyl  ",Clc1ccccc1-c1ccccc1Cl
-5.24,4.95,163.893,"2,5-Dichlorobiphenyl  ",Clc1ccc(Cl)c(-c2ccccc2)c1
-5.28,5.02,163.893,"2,4'-Dichlorobiphenyl  ",Clc1ccc(-c2ccccc2Cl)cc1
-5.8,5.11,163.893,"3,3'-Dichlorobiphenyl  ",Clc1cccc(-c2cccc(Cl)c2)c1
-6.39,4.99,163.893,"3,4-Dichlorobiphenyl  ",Clc1ccc(-c2ccccc2)cc1Cl
-5.21,4.94,163.893,"2,6-Dichlorobiphenyl  ",Clc1cccc(Cl)c1-c1ccccc1
-2.4,2.6,81.521,"1,1-Dichlorobutane  ",CCCC(Cl)Cl
-2.7,2.11,81.521,"2,3-Dichlorobutane  ",CC(Cl)C(C)Cl
-7.21,5.29,161.418,"2,8-Dichlorodibenzofuran  ",Clc1ccc2oc3ccc(Cl)cc3c2c1
-7.83,5.82,165.725,"2,7-Dichlorodibenzo-p-dioxin  ",Clc1ccc2c(c1)Oc1ccc(Cl)cc1O2
-7.18,5.82,165.725,"2,8-Dichlorodibenzo-p-dioxin  ",Clc1ccc2c(c1)Oc1cc(Cl)ccc1O2
-1.99,2.19,44.953,Dichlorodifluoromethane  ,FC(F)(Cl)Cl
-5.06,4.98,168.2,"2,6-Dichlorodiphenyl ether  ",Clc1cccc(Cl)c1Oc1ccccc1
-5.52,5.19,168.2,"2,4'-Dichlorodiphenyl ether  ",Clc1ccc(Oc2ccccc2Cl)cc1
-1.29,1.53,56.553000000000004,"1,1-Dichloroethane  ",CC(Cl)Cl
-1.06,1.41,56.553000000000004,"1,2-Dichloroethane  ",ClCCCl
-1.64,1.77,55.897,"1,1-Dichloroethylene  ",C=C(Cl)Cl
-1.3,1.74,55.897,"1,2-Dichloroethylene  ",ClC=CCl
-1.12,2.09,112.16,"2,2'-Dichloroethyl ether  ",ClC(Cl)COCC(Cl)Cl
-0.63,1.19,44.068999999999996,Dichloromethane  ,ClCCl
-1.62,2.0,69.03699999999999,"1,3-Dichloropropane  ",ClCCCCl
-1.6,1.76,69.03699999999999,"1,2-Dichloropropane  ",CC(Cl)CCl
-3.46,3.67,131.321,"4,5-Dichloroveratrole  ",COc1cc(Cl)c(Cl)cc1OC
-0.77,0.62,88.771,"1,2-Diethoxyethane  ",CCOCCOCC
-0.43,1.14,88.771,"1,1-Diethoxyethane  ",CCOC(C)OCC
-3.75,4.2,121.34299999999999,"1,4-Diethylbenzene  ",CCc1ccc(CC)cc1
-0.09,0.98,59.496,Diethyl ether  ,CCOCC
-2.35,2.7,156.101,Diethyl phthalate  ,CCOC(=O)c1ccccc1C(=O)OCC
-5.37,4.11,141.637,"1,4-Diiodobenzene  ",Ic1ccc(I)cc1
-3.22,3.06,99.795,"1,2-Diiodoethylene  ",IC=CI
-4.66,4.46,206.037,Diisobutyl phthalate  ,CC(C)COC(=O)c1ccccc1C(=O)OCC(C)C
-1.1,1.68,84.464,Diisopropyl ether  ,CC(C)OC(C)C
-1.3,1.6,93.229,Diisopropylketone  ,CC(C)C(=O)C(C)C
-2.32,1.77,118.061,"2,5-Dimethoxybenzaldehyde  ",COc1ccc(OC)c(C=O)c1
0.48,-0.27,51.318999999999996,Dimethoxymethane  ,COCOC
-1.04,1.57,84.464,"2,2-Dimethyl-1-Butanol  ",CCC(C)(C)CO
-0.5,1.57,84.464,"3,3-Dimethyl-1-Butanol  ",CC(C)(C)CCO
-1.52,2.1,96.948,"2,2-Dimethyl-1-pentanol  ",CCCC(C)(C)CO
-1.6,2.1,96.948,"2,4-Dimethyl-1-pentanol  ",CC(C)CC(C)CO
-1.55,2.1,96.948,"4,4-Dimethyl-1-pentanol  ",CC(C)(C)CCCO
-0.4,2.1,96.948,"2,2-Dimethyl-1-pentanol  ",CCCC(C)(C)CO
-0.62,1.39,84.464,"3,3-Dimethyl-2-Butanol  ",CC(O)C(C)(C)C
-0.41,1.39,84.464,"2,3-Dimethyl-2-Butanol  ",CC(C)C(C)(C)O
-0.92,1.92,96.948,"2,4-Dimethyl-2-pentanol  ",CC(C)CC(C)(C)O
-0.89,1.92,96.948,"2,3-Dimethyl-2-pentanol  ",CCC(C)C(C)(C)O
-1.15,1.92,96.948,"2,2-Dimethyl-3-pentanol  ",CCC(O)C(C)(C)C
-1.22,1.92,96.948,"2,4-Dimethyl-3-pentanol  ",CC(C)C(O)C(C)C
-0.85,1.92,96.948,"2,3-Dimethyl-3-pentanol  ",CCC(C)(O)C(C)C
1.11,-0.75,65.503,"N,N-Dimethylacetamide  ",CC(=O)N(C)C
-2.8,3.14,96.375,"1,2-Dimethylbenzene  ",Cc1ccccc1C
-2.82,3.14,96.375,"1,3-Dimethylbenzene  ",Cc1cccc(C)c1
-2.77,3.14,96.375,"1,4-Dimethylbenzene  ",Cc1ccc(C)cc1
-3.55,3.58,80.157,"2,2-Dimethylbutane  ",CCC(C)(C)C
-0.39,1.57,84.464,"2,3-Dimethylbutanol  ",CC(C)C(C)CO
-4.3,4.37,98.34299999999999,"1,2-Dimethylcyclohexane  ",CC1CCCCC1C
-4.14,4.37,138.217,"1,4-Dimethylnaphthalene  ",Cc1ccc(C)c2ccccc12
-4.26,4.11,92.641,"2,4-Dimethylpentane  ",CC(C)CC(C)C
-1.66,1.64,131.13299999999998,Dimethyl phthalate  ,COC(=O)c1ccccc1C(=O)OC
-4.01,2.47,131.13299999999998,Dimethyl terephthalate  ,COC(=O)c1ccc(C(=O)OC)cc1
-2.09,4.03,127.469,"1,4-Dipentadiene  ",C=CC=C(C)C=CC=CC
-3.91,4.21,141.868,Diphenyl ether  ,c1ccc(Oc2ccccc2)cc1
-4.08,4.21,150.045,Diphenylmethane  ,c1ccc(Cc2ccccc2)cc1
-1.62,2.04,84.464,Dipropyl ether  ,CCCOCCC
-1.7,2.5,93.229,Enanthaldehyde  ,CCCCCCC=O
-0.15,0.45,53.396,Epichlorohydrin  ,ClCC1CO1
-2.19,2.14,130.545,4-Ethoxy-3-methoxybenzaldehyde  ,CCOc1ccc(C=O)cc1OC
-1.77,1.72,118.061,3-Ethoxy-4-hydroxybenzaldehyde  ,CCOc1cc(C=O)ccc1O
-1.17,1.75,84.464,2-Ethyl-1-Butanol  ,CCC(CC)CO
-2.11,2.82,109.432,2-Ethyl-1-Hexanol  ,CCCCC(CC)CO
-3.21,3.67,108.859,1-Ethyl-2-methylbenzene  ,CCc1ccccc1C
0.08,1.04,71.98,2-Ehyl-2-propanol  ,CCC(C)(C)O
-0.85,2.1,96.948,3-ethyl-3-pentanol  ,CCC(O)(CC)CC
-3.11,3.67,108.859,1-Ethyl-4-methylbenzene  ,CCc1ccc(C)cc1
-0.04,0.71,60.083999999999996,Ethyl acetate  ,CCOC(C)=O
-0.74,1.32,71.91199999999999,Ethyl acrylate  ,C=CC(=O)OCC
-2.32,2.73,113.75399999999999,Ethyl benzoate  ,CCOC(=O)c1ccccc1
-1.28,1.77,85.052,Ethyl butyrate  ,CCCC(=O)OCC
-3.39,3.9,134.988,Ethyl caprylate  ,CCCCCCCC(=O)OCC
-1.08,1.41,56.553000000000004,Ethylenedichloride  ,ClCCCl
0.08,-1.69,38.835,Ethylene glycol  ,OCCO
0.15,0.3,47.6,Ethyl formate  ,CCOC=O
-2.71,3.37,122.50399999999999,Ethyl heptylate  ,CCCCCCC(=O)OCC
-0.55,1.33,71.98,Ethyl isopropyl ether  ,CCOC(C)C
-3.8,4.43,147.472,Ethyl pelargonate  ,CCCCCCCCC(=O)OCC
-0.66,1.24,72.568,Ethyl propionate  ,CCOC(=O)CC
-0.66,1.51,71.98,Ethyl propyl ether  ,CCCOCC
-1.75,2.3,97.536,Ethyl valerate  ,CCCCC(=O)OCC
-0.85,1.04,58.84,Ethyl vinyl ether  ,C=COCC
-5.92,5.17,172.62099999999998,Fluoranthene  ,c1ccc2c(c1)-c1cccc3cccc-2c13
-5.0,4.16,143.263,Fluorene  ,c1ccc2c(c1)Cc1ccccc1-2
-3.13,3.23,106.964,1-Fluoro-4-iodobenzene  ,Fc1ccc(I)cc1
-1.8,2.27,71.84899999999999,Flurobenzene  ,Fc1ccccc1
-0.82,1.38,51.402,Furan  ,c1ccoc1
-0.1,0.73,64.47399999999999,Furfural  ,O=Cc1ccco1
-7.92,7.21,229.72299999999998,"2,2',3,4,4',5',6-Heptachlorobiphenyl  ",Clc1cc(Cl)c(-c2c(Cl)cc(Cl)c(Cl)c2Cl)cc1Cl
-8.3,7.16,229.72299999999998,"2,2',3,3',4,4',6-Heptachlorobiphenyl  ",Clc1ccc(-c2c(Cl)cc(Cl)c(Cl)c2Cl)c(Cl)c1Cl
-8.94,7.12,229.72299999999998,"2,2',3,4',5,5',6-Heptachlorobiphenyl  ",Clc1cc(Cl)c(-c2c(Cl)c(Cl)cc(Cl)c2Cl)cc1Cl
-11.48,7.26,227.248,"1,2,3,4,6,7,8-Heptachlorodibenzofuran  ",Clc1cc2c(oc3c(Cl)c(Cl)c(Cl)c(Cl)c32)c(Cl)c1Cl
-11.25,8.1,231.555,"1,2,3,4,6,7,8-Heptachlorodibenzo-p-dioxin  ",Clc1cc2c(c(Cl)c1Cl)Oc1c(Cl)c(Cl)c(Cl)c(Cl)c1O2
-9.46,7.59,234.03,"2,3,3',4,4',5,6-Heptachlorodiphenyl ether  ",Clc1ccc(Oc2c(Cl)c(Cl)c(Cl)c(Cl)c2Cl)cc1Cl
-9.12,7.65,234.03,"2,2',3,3',4,4',5-Heptachlorodiphenyl ether  ",Clc1ccc(Oc2cc(Cl)c(Cl)c(Cl)c2Cl)c(Cl)c1Cl
-9.5,7.71,234.03,"2,2',3,4,4',5,5'-Heptachlorodiphenyl ether  ",Clc1cc(Cl)c(Oc2cc(Cl)c(Cl)c(Cl)c2Cl)cc1Cl
-9.09,7.49,234.03,"2,2',3,3',4',5,6-Heptachlorodiphenyl ether  ",Clc1ccc(Oc2c(Cl)c(Cl)cc(Cl)c2Cl)c(Cl)c1Cl
-9.05,7.54,234.03,"2,2',3,4',5,5',6-Heptachlorodiphenyl ether  ",Clc1cc(Cl)c(Oc2c(Cl)c(Cl)cc(Cl)c2Cl)cc1Cl
-4.53,4.47,92.641,Heptane  ,CCCCCCC
-1.81,2.47,96.948,1-Heptanol  ,CCCCCCCO
-1.55,2.29,96.948,2-Heptanol  ,CCCCCC(C)O
-1.47,2.29,96.948,3-Heptanol  ,CCCCC(O)CC
-1.4,2.29,96.948,4-Heptanol  ,CCCC(O)CCC
-3.82,3.96,91.985,trans-2-Heptene  ,CC=CCCCC
-3.01,3.12,87.977,1-Heptyne  ,C#CCCCCC
-4.92,3.98,132.873,"HexaChloro-1,3-Butadiene  ",ClC(Cl)=C(Cl)C(Cl)=C(Cl)Cl
-7.56,4.89,150.403,Hexachlorobenzene  ,Clc1c(Cl)c(Cl)c(Cl)c(Cl)c1Cl
-8.56,6.83,216.55700000000002,"2,2',4,4',5,5'-Hexachlorobiphenyl  ",Clc1cc(Cl)c(Cl)c(-c2cc(Cl)cc(Cl)c2Cl)c1
-8.65,6.65,216.55700000000002,"2,2',3,3',6,6'-Hexachlorobiphenyl  ",Clc1ccc(Cl)c(-c2c(Cl)ccc(Cl)c2Cl)c1Cl
-6.96,6.83,216.55700000000002,"2,2',3,3',5,5'-Hexachlorobiphenyl  ",Clc1cc(Cl)c(Cl)c(-c2cc(Cl)cc(Cl)c2Cl)c1
-8.71,7.1,216.55700000000002,"2,2',4,4',6,6'-Hexachlorobiphenyl  ",Clc1cc(Cl)c(-c2c(Cl)cc(Cl)cc2Cl)c(Cl)c1
-9.01,6.73,216.55700000000002,"2,2',3,3',4,4'-Hexachlorobiphenyl  ",Clc1ccc(-c2ccc(Cl)c(Cl)c2Cl)c(Cl)c1Cl
-8.78,6.65,216.55700000000002,"2,2',3,3',4,5-Hexachlorobiphenyl  ",Clc1cccc(-c2cc(Cl)c(Cl)c(Cl)c2Cl)c1Cl
-8.32,6.79,216.55700000000002,"2,2',3,4,4',5'-Hexachlorobiphenyl  ",Clc1ccc(-c2cc(Cl)c(Cl)c(Cl)c2Cl)c(Cl)c1
-7.68,6.7,216.55700000000002,"2,2',3,4,5,5'-Hexachlorobiphenyl  ",Clc1ccc(Cl)c(-c2cc(Cl)c(Cl)c(Cl)c2Cl)c1
-7.42,6.66,216.55700000000002,"2,2',3,5,5',6-Hexachlorobiphenyl  ",Clc1ccc(Cl)c(-c2c(Cl)c(Cl)cc(Cl)c2Cl)c1
-7.82,6.74,216.55700000000002,"2,3,3',4,4',5-Hexachlorobiphenyl  ",Clc1ccc(-c2cc(Cl)c(Cl)c(Cl)c2Cl)cc1Cl
-7.66,6.79,216.55700000000002,"2,3,3',4,4',6-Hexachlorobiphenyl  ",Clc1ccc(-c2c(Cl)cc(Cl)c(Cl)c2Cl)cc1Cl
-7.9,6.61,216.55700000000002,"2,2',3,3',5,6-Hexachlorobiphenyl  ",Clc1cccc(-c2c(Cl)c(Cl)cc(Cl)c2Cl)c1Cl
-10.33,6.94,214.082,"1,2,3,6,7,8-Hexachlorodibenzofuran  ",Clc1cc2c(oc3cc(Cl)c(Cl)c(Cl)c32)c(Cl)c1Cl
-10.66,7.01,214.082,"1,2,3,4,7,8-Hexachlorodibenzofuran  ",Clc1cc2oc3c(Cl)c(Cl)c(Cl)c(Cl)c3c2cc1Cl
-9.95,7.71,218.389,"1,2,3,4,7,8-Hexachlorodibenzo-p-dioxin  ",Clc1cc2c(cc1Cl)Oc1c(Cl)c(Cl)c(Cl)c(Cl)c1O2
-8.14,7.12,220.864,"2,2',3,3',4,4'-Hexachlorodiphenyl ether  ",Clc1ccc(Oc2ccc(Cl)c(Cl)c2Cl)c(Cl)c1Cl
-8.1,7.06,220.864,"2,2',3,4,4',6'-Hexachlorodiphenyl ether  ",Clc1cc(Cl)c(Oc2ccc(Cl)c(Cl)c2Cl)c(Cl)c1
-8.31,7.17,220.864,"2,2',3,4,4',5'-Hexachlorodiphenyl ether  ",Clc1cc(Cl)c(Oc2ccc(Cl)c(Cl)c2Cl)cc1Cl
-8.36,7.23,220.864,"2,2',4,4',5,5'-Hexachlorodiphenyl ether  ",Clc1cc(Cl)c(Oc2cc(Cl)c(Cl)cc2Cl)cc1Cl
-8.04,7.11,220.864,"2,2',4,4',5,6'-Hexachlorodiphenyl ether  ",Clc1cc(Cl)c(Oc2cc(Cl)c(Cl)cc2Cl)c(Cl)c1
-8.72,7.51,220.864,"2,3',4,4',5,5'-Hexachlorodiphenyl ether  ",Clc1cc(Cl)c(Oc2cc(Cl)c(Cl)c(Cl)c2)cc1Cl
-8.44,7.17,220.864,"2,2',3',4,4',5-Hexachlorodiphenyl ether  ",Clc1cc(Cl)c(Oc2ccc(Cl)c(Cl)c2Cl)cc1Cl
-8.78,7.39,220.864,"2,3,3',4,4',5-Hexachlorodiphenyl ether  ",Clc1ccc(Oc2cc(Cl)c(Cl)c(Cl)c2Cl)cc1Cl
-8.94,7.0,220.864,"2,3,4,4',5,6-Hexachlorodiphenyl ether  ",Clc1ccc(Oc2c(Cl)c(Cl)c(Cl)c(Cl)c2Cl)cc1
-3.67,4.47,109.21700000000001,Hexachloroethane  ,ClC(Cl)(Cl)C(Cl)(Cl)Cl
-2.68,2.8,78.845,"1,5-Hexadiene  ",C=CCCC=C
-3.84,3.94,80.157,Hexane  ,CCCCCC
-1.24,1.94,84.464,1-Hexanol  ,CCCCCCO
-0.89,1.75,84.464,2-Hexanol  ,CCCCC(C)O
-0.8,1.75,84.464,3-Hexanol  ,CCCC(O)CC
-3.23,3.43,79.501,1-Hexene  ,C=CCCCC
-2.46,2.83,110.02,Hexyl acetate  ,CCCCCCOC(C)=O
-5.21,5.34,146.311,Hexyl benzene  ,CCCCCCc1ccccc1
-2.36,2.59,75.493,1-Hexyne  ,C#CCCCC
-3.09,1.43,253.73,Hydrocortisone  ,CC12CCC(=O)C=C1CCC1C2C(O)CC2(C)C1CCC2(O)C(=O)CO
-0.96,1.39,88.786,p-Hydroxybenzaldehyde  ,O=Cc1ccc(O)cc1
-3.82,2.55,245.11599999999999,11-a-Hydroxyprogesterone  ,CC(=O)C1CCC2C3CCC4=CC(=O)CC(O)C4(C)C3CCC12C
-3.03,3.34,102.07700000000001,Indane  ,c1ccc2c(c1)CCC2
-3.04,3.25,106.522,Iodobenzene  ,Ic1ccccc1
-2.96,3.09,90.304,1-Iodobutane  ,CCCCI
-1.6,2.03,65.336,Iodoethane  ,CCI
-1.0,1.5,52.852,Iodomethane  ,CI
-2.29,2.56,77.82,1-Iodopropane  ,CCCI
-2.09,2.38,77.82,2-Iodopropane  ,CC(C)I
-1.21,1.59,85.052,Isobutyl acetate  ,CC(=O)OCC(C)C
-1.01,1.18,72.568,Isobutyl formate  ,CC(C)COC=O
-0.52,1.22,71.98,Isopentanol  ,CC(C)CCO
-0.55,1.06,72.568,Isopropyl acetate  ,CC(=O)OC(C)C
-3.77,4.02,121.34299999999999,p-Isopropyltoluene  ,Cc1ccc(C(C)C)cc1
-3.36,2.93,207.793,Malathion  ,CCOC(=O)CC(SP(=S)(OC)OC)C(=O)OCC
-0.82,0.7,102.431,Malonicaciddiethylester  ,CCOC(=O)CC(=O)OCC
-2.34,3.2,127.618,Menthol  ,CC1CCC(C(C)C)C(O)C1
-1.82,0.7,146.851,Meprobamate  ,CCCC(C)(COC(N)=O)COC(N)=O