Expt,ClogP,Polarizability,Name,smiles
-4.92,3.45,183.345,"3,3´-dichlorobenzidine",Nc1ccc(-c2ccc(N)c(Cl)c2)cc1Cl
-6.39,4.99,163.893,"3,4-PCB",Clc1ccc(-c2ccccc2)cc1Cl
-6.51,6.1,190.225,"2,2´,4,4´-PCB",Clc1ccc(-c2ccc(Cl)cc2Cl)c(Cl)c1
-6.57,6.01,190.225,"2,2´,4,5´-PCB",Clc1ccc(-c2cc(Cl)ccc2Cl)c(Cl)c1
-6.21,5.61,177.05900000000003,"2,4,4´-PCB",Clc1ccc(-c2ccc(Cl)cc2Cl)cc1
-5.25,5.04,163.893,"2,4-PCB",Clc1ccc(-c2ccccc2)c(Cl)c1
-3.49,3.88,226.885,propiconazole,CCCC1COC(Cn2cncn2)(c2ccc(Cl)cc2Cl)O1
-3.59,3.82,110.905,"1,2,4-trichlorobenzene",Clc1ccc(Cl)c(Cl)c1
-4.46,5.17,185.673,triclosan,Oc1cc(Cl)ccc1Oc1ccc(Cl)cc1Cl
-3.67,3.51,156.877,"2,4-DB",O=C(O)CCCOc1ccc(Cl)cc1Cl
-2.51,2.58,131.909,"2,4-D",O=C(O)COc1ccc(Cl)cc1Cl
-2.45,2.93,144.393,dichlorprop,CC(Oc1ccc(Cl)cc1Cl)C(=O)O
-1.55,2.99,102.046,"2,4-dichlorophenol",Oc1ccc(Cl)cc1Cl
-2.82,3.71,153.344,methazole,Cn1c(=O)on(-c2ccc(Cl)c(Cl)c2)c1=O
-3.24,2.51,107.465,"3,4-dichloroaniline",Nc1ccc(Cl)c(Cl)c1
-3.0,3.18,145.505,propanil,CCC(=O)Nc1ccc(Cl)c(Cl)c1
-4.77,4.38,192.683,neburon,CCCCN(C)C(=O)Nc1ccc(Cl)c(Cl)c1
-3.46,2.46,154.549,chlorotoluron,Cc1ccc(NC(=O)N(C)C)cc1Cl
-3.8,2.78,155.231,diuron,CN(C)C(=O)Nc1ccc(Cl)c(Cl)c1
-4.33,2.12,230.815,dimefuron,CN(C)C(=O)Nc1ccc(-n2nc(C(C)(C)C)oc2=O)c(Cl)c1
-2.56,1.8,158.856,metoxuron,COc1ccc(NC(=O)N(C)C)cc1Cl
-3.52,3.2,159.53799999999998,iinuron,CON(C)C(=O)Nc1ccc(Cl)c(Cl)c1
-1.25,3.22,102.046,"3,4-dichlorophenol",Oc1ccc(Cl)c(Cl)c1
-7.28,5.81,190.225,"2,2´,3,3´-PCB",Clc1cccc(-c2cccc(Cl)c2Cl)c1Cl
-7.21,6.32,203.391,"2,2',3,4,5-PCB",Clc1cc(Cl)c(-c2cccc(Cl)c2Cl)cc1Cl
-6.47,5.87,190.225,"2,2´,3,5´-PCB",Clc1ccc(Cl)c(-c2cccc(Cl)c2Cl)c1
-6.26,5.46,177.05900000000003,"2,3,4´-PCB",Clc1ccc(-c2cccc(Cl)c2Cl)cc1
-4.0,3.77,110.905,"1,2,3-trichlorobenzene",Clc1cccc(Cl)c1Cl
-1.3,2.83,102.046,"2,3-dichlorophenol",Oc1cccc(Cl)c1Cl
-5.27,4.93,163.893,"2,2´-PCB",Clc1ccccc1-c1ccccc1Cl
-5.28,5.02,163.893,"2,4´-PCB",Clc1ccc(-c2ccccc2Cl)cc1
-4.54,4.45,150.727,2-chlorobiphenyl,Clc1ccccc1-c1ccccc1
-4.08,2.66,240.49599999999998,triazolam,Cc1nnc2n1-c1ccc(Cl)cc1C(c1ccccc1Cl)=NC2
-3.6,2.47,215.19099999999997,lorazepam,O=C1Nc2ccc(Cl)cc2C(c2ccccc2Cl)=NC1O
-6.36,6.22,214.537,"o,p'-DDE",ClC(Cl)=C(c1ccc(Cl)cc1)c1ccccc1Cl
-2.34,2.17,167.31599999999997,clomazone,CC1(C)CON(Cc2ccccc2Cl)C1=O
-3.52,3.27,97.057,o-chlorotoluene,Cc1ccccc1Cl
-3.05,3.28,97.73899999999999,"1,2-dichlorobenzene",Clc1ccccc1Cl
-4.38,3.23,235.196,fenarimol,OC(c1ccc(Cl)cc1)(c1cncnc1)c1ccccc1Cl
-1.89,2.04,101.95200000000001,o-chlorobenzoic acid,O=C(O)c1ccccc1Cl
-1.52,1.91,94.29899999999999,2-chloroaniline,Nc1ccccc1Cl
-1.4,1.28,119.855,2-chloroacetanilide,CC(=O)Nc1ccccc1Cl
-2.16,1.89,118.743,2-chlorophenoxyacetic acid,O=C(O)COc1ccccc1Cl
-2.46,2.68,101.36399999999999,2-chloroanisole,COc1ccccc1Cl
-2.22,2.23,131.227,2-(2-chlorophenoxy)propanoic acid,CC(Oc1ccccc1Cl)C(=O)O
-1.06,2.04,88.88,2-chlorophenol,Oc1ccccc1Cl
-4.18,2.58,190.59900000000002,methyl 2-chloro-9-hydroxy-fluorene-9-carboxylate,COC(=O)C1(O)c2ccccc2-c2ccc(Cl)cc21
-4.18,1.87,178.115,chlorflurecol-methyl,O=C(O)C1(O)c2ccccc2-c2ccc(Cl)cc21
-4.14,4.04,126.415,2-chloronaphthalene,Clc1ccc2ccccc2c1
-3.75,2.96,210.202,diazepam,CN1C(=O)CN=C(c2ccccc2)c2cc(Cl)ccc21
-5.23,4.28,235.226,phosalone,CCOP(=S)(OCC)SCn1c(=O)oc2cc(Cl)ccc21
-5.36,2.93,195.61599999999999,RTI 24,CCN1c2cc(Cl)ccc2NC(=O)c2cccnc21
-3.95,2.31,202.025,oxazepam,O=C1Nc2ccc(Cl)cc2C(c2ccccc2)=NC1O
-2.83,2.19,104.896,chlorzoxazone,O=c1[nH]c2cc(Cl)ccc2o1
-4.7,4.08,330.926,thiopropazate,CC(=O)OCCN1CCN(CCCN2c3ccccc3Sc3ccc(Cl)cc32)CC1
-4.16,3.54,305.37,perphenazine,OCCN1CCN(CCCN2c3ccccc3Sc3ccc(Cl)cc32)CC1
-4.4,3.81,288.579,prochlorperazine,CN1CCN(CCCN2c3ccccc3Sc3ccc(Cl)cc32)CC1
-5.01,4.82,248.183,chlorpromazine,CN(C)CCCN1c2ccccc2Sc2ccc(Cl)cc21
-4.57,3.49,259.91900000000004,glafenine,O=C(OCC(O)CO)c1ccccc1Nc1ccnc2cc(Cl)ccc12
-2.86,3.01,150.24200000000002,chlordimenform,Cc1cc(Cl)ccc1N=CN(C)C
-2.23,2.49,131.227,(4-Chloro-2-methylphenoxy)acetic acid,Cc1cc(Cl)ccc1OCC(=O)O
-5.09,3.75,340.27,glyburide,COc1ccc(Cl)cc1C(=O)NCCc1ccc(S(=O)(=O)NC(=O)NC2CCCCC2)cc1
-2.55,2.83,143.711,mecoprop,Cc1cc(Cl)ccc1OC(C)C(=O)O
-3.95,4.62,184.99099999999999,dichlorphen,Oc1ccc(Cl)cc1Cc1cc(Cl)ccc1O
-4.48,4.04,110.905,"1,3,5-trichlorobenzene",Clc1cc(Cl)cc(Cl)c1
-4.8,2.67,182.465,procymidone,CC12CC1(C)C(=O)N(c1cc(Cl)cc(Cl)c1)C2=O
-4.38,3.06,209.287,rovral,CC(C)NC(=O)N1CC(=O)N(c2cc(Cl)cc(Cl)c2)C1=O
-4.93,3.45,180.41400000000002,vinclozolin,C=CC1(C)OC(=O)N(c2cc(Cl)cc(Cl)c2)C1=O
-1.34,3.33,102.046,"3,5-dichlorophenol",Oc1cc(Cl)cc(Cl)c1
-5.8,5.11,163.893,"3,3´-PCB",Clc1cccc(-c2cccc(Cl)c2)c1
-4.88,4.54,150.727,3-chlorobiphenyl,Clc1cccc(-c2ccccc2)c1
-3.04,3.42,97.73899999999999,"1,3-dichlorobenzene",Clc1cccc(Cl)c1
-4.53,5.08,235.515,chloropropylate,CC(C)OC(=O)C(O)(c1ccc(Cl)cc1)c1cccc(Cl)c1
-2.59,2.9,101.95200000000001,m-chlorobenzoic acid,O=C(O)c1cccc(Cl)c1
-1.37,1.81,94.29899999999999,3-chloroaniline,Nc1cccc(Cl)c1
-2.62,3.17,156.95,chlorbufam,C#CC(C)OC(=O)Nc1cccc(Cl)c1
-3.38,3.49,149.13,chloropham,CC(C)OC(=O)Nc1cccc(Cl)c1
-2.78,2.96,101.36399999999999,3-chloroanisole,COc1cccc(Cl)c1
-2.22,2.52,131.227,DL-2-(2-Chlorophenoxy)propionic acid,CC(Oc1cccc(Cl)c1)C(=O)O
-0.7,2.4,88.88,3-chlorophenol,Oc1cccc(Cl)c1
-6.56,5.12,163.893,"4,4´-PCB",Clc1ccc(-c2ccc(Cl)cc2)cc1
-5.2,4.55,150.727,4-chlorobiphenyl,Clc1ccc(-c2ccccc2)cc1
-5.93,6.17,266.83,"atovaquone(0,430mg/ml) - neutral",O=C1C(O)=C(C2CCC(c3ccc(Cl)cc3)CC2)C(=O)c2ccccc21
-6.9,6.37,214.537,"p,p´-DDE",ClC(Cl)=C(c1ccc(Cl)cc1)c1ccc(Cl)cc1
-5.91,4.82,251.373,pencycuron,O=C(Nc1ccccc1)N(Cc1ccc(Cl)cc1)C1CCCC1
-3.08,3.27,97.057,p-chlorotoluene,Cc1ccc(Cl)cc1
-5.84,4.01,240.467,coumachlor,CC(=O)CC(c1ccc(Cl)cc1)c1c(O)c2ccccc2oc1=O
-3.27,3.34,97.73899999999999,"1,4-dichlorobenzene",Clc1ccc(Cl)cc1
-4.53,5.08,235.515,chloropropylate,CC(C)OC(=O)C(O)(c1ccc(Cl)cc1)c1ccc(Cl)cc1
-4.62,3.1,250.19299999999998,indomethacin,COc1ccc2c(c1)c(CC(=O)O)c(C)n2C(=O)c1ccc(Cl)cc1
-3.31,2.65,101.95200000000001,p-chlorobenzoic acid,O=C(O)c1ccc(Cl)cc1
-4.43,4.2,250.185,anilofos,COP(=S)(OC)SCC(=O)N(c1ccc(Cl)cc1)C(C)C
-1.66,1.76,94.29899999999999,4-chloroaniline,Nc1ccc(Cl)cc1
-2.84,2.05,119.855,4-chloroacetanilide,CC(=O)Nc1ccc(Cl)cc1
-2.89,1.89,142.065,monuron,CN(C)C(=O)Nc1ccc(Cl)cc1
-3.9,2.61,174.85299999999998,buturon,C#CC(C)N(C)C(=O)Nc1ccc(Cl)cc1
-2.57,2.3,146.372,monolinuron,CON(C)C(=O)Nc1ccc(Cl)cc1
-4.89,3.2,212.52599999999998,chloroxuron,CN(C)C(=O)Nc1ccc(Oc2ccc(Cl)cc2)cc1
-2.29,2.03,118.743,4-chlorophenoxyacetic acid,O=C(O)COc1ccc(Cl)cc1
-2.78,2.82,101.36399999999999,4-chloroanisole,COc1ccc(Cl)cc1
-3.61,2.77,204.298,triadimefon,CC(C)(C)C(=O)C(Oc1ccc(Cl)cc1)n1cncn1
-0.7,2.43,88.88,4-chlorophenol,Oc1ccc(Cl)cc1
-5.74,5.61,237.269,carbophenothion,CCOP(=S)(OCC)SCSc1ccc(Cl)cc1
-3.03,2.3,178.889,chlorpropamide,CCCNC(=O)NS(=O)(=O)c1ccc(Cl)cc1
-2.38,2.81,84.573,chlorobenzene,Clc1ccccc1
-7.28,13.68,245.565,dienochlor,ClC1=C(Cl)C(Cl)(C2(Cl)C(Cl)=C(Cl)C(Cl)=C2Cl)C(Cl)=C1Cl
-5.18,5.16,138.575,hexachlorocyclopentadiene,ClC1=C(Cl)C(Cl)(Cl)C(Cl)=C1Cl
-2.08,-0.3,150.935,tranid,CNC(=O)ON=C1C(Cl)C2CC(C#N)C1C2
-4.51,3.99,152.371,gamma-hexachlorocyclohexane,ClC1C(Cl)C(Cl)C(Cl)C(Cl)C1Cl
-4.11,2.05,202.27900000000002,RTI 12,CCN1c2ncccc2C(=O)N(C)c2ccc(Cl)nc21
-0.87,-0.97,103.131,6-chloro-pteridine,Clc1cnc2ncncc2n1
-0.87,-0.71,103.131,7-chloro-pteridine,Clc1cnc2cncnc2n1
-2.75,2.94,132.189,picloram,Nc1c(Cl)c(Cl)nc(C(=O)O)c1Cl
-5.67,4.77,204.87099999999998,chlorpyriphos,CCOP(=S)(OCC)Oc1nc(Cl)c(Cl)cc1Cl
-4.82,3.71,179.903,chlorpyriphos methyl,COP(=S)(OC)Oc1nc(Cl)c(Cl)cc1Cl
-4.58,1.45,255.08700000000002,chlorimuron ethyl (ph 7),CCOC(=O)c1ccccc1S(=O)(=O)NN(C=O)c1nc(Cl)cc(OC)n1
-4.41,4.44,186.43400000000003,chlorazine,CCN(CC)c1nc(Cl)nc(N(CC)CC)n1
-4.06,3.34,161.466,trietazine,CCNc1nc(Cl)nc(N(CC)CC)n1
-3.15,2.19,162.078,cyanazine,CCNc1nc(Cl)nc(NC(C)(C)C#N)n1
-4.55,2.28,136.498,simazine,CCNc1nc(Cl)nc(NCC)n1
-3.85,2.63,148.982,atrazine,CCNc1nc(Cl)nc(NC(C)C)n1
-3.79,3.69,173.95,Ipazine,CCN(CC)c1nc(Cl)nc(NC(C)C)n1
-4.43,2.98,161.466,propazine,CC(C)Nc1nc(Cl)nc(NC(C)C)n1
-1.72,1.76,180.515,azintamide,CCN(CC)C(=O)CSc1ccc(Cl)nn1
-3.66,2.99,195.584,isazofos,CCOP(=S)(OCC)Oc1nc(Cl)n(C(C)C)n1
-4.95,3.88,282.526,delmadinone acetate,CC(=O)OC1(C(C)=O)CCC2C3C=C(Cl)C4=CC(=O)C=CC4(C)C3CCC21C
-5.38,3.86,231.753,coumaphos,CCOP(=S)(OCC)Oc1ccc2c(C)c(Cl)c(=O)oc2c1
-5.38,3.94,231.753,coumaphos,CCOP(=S)(OCC)Oc1ccc2oc(=O)c(Cl)c(C)c2c1
-2.87,0.73,153.118,pyrazon,Nc1cnn(-c2ccccc2)c(=O)c1Cl
-2.48,1.76,143.965,terbacil,Cc1[nH]c(=O)n(C(C)(C)C)c(=O)c1Cl
-4.91,3.98,132.873,hexachlorobutadiene,ClC(Cl)=C(Cl)C(Cl)=C(Cl)Cl
-4.88,6.18,201.615,triallate,CC(C)N(C(=O)SCC(Cl)=C(Cl)Cl)C(C)C
-4.23,3.29,119.70700000000001,pentachlorobutadiene,ClC(Cl)=CC(Cl)=C(Cl)Cl
-2.54,2.95,82.229,tetrachloroethylene,ClC(Cl)=C(Cl)Cl
-3.39,4.19,168.37400000000002,2-chloroallyl diethyldithiocarbamate,C=C(Cl)CSC(=S)N(CC)CC
-2.51,2.73,80.839,2-chloro-2-methylbutane,CCC(C)(C)Cl
-1.64,1.77,55.897,"1,1-dichloroethylene",C=C(Cl)Cl
-6.29,7.15,278.013,permethrin,CC1(C)C(C=C(Cl)Cl)C1C(=O)OCc1cccc(Oc2ccccc2)c1
-8.02,6.27,291.10900000000004,cypermethrin,CC1(C)C(C=C(Cl)Cl)C1C(=O)OC(C#N)c1cccc(Oc2ccccc2)c1
-2.69,2.46,94.005,"2,3-dichloro-2-methylbutane",CC(Cl)C(C)(C)Cl
-1.96,2.26,69.063,trichloroethylene,ClC=C(Cl)Cl
-1.84,1.1,156.901,chloralose,OCC(O)C1OC2OC(C(Cl)(Cl)Cl)OC2C1O
-3.76,2.52,130.734,nitrapyrin,Clc1cccc(C(Cl)(Cl)Cl)n1
-3.67,4.47,109.21700000000001,hexachloroethane,ClC(Cl)(Cl)C(Cl)(Cl)Cl
-2.18,2.48,82.885,"1,1,1,2-tetrachloroethane",ClCC(Cl)(Cl)Cl
-2.0,2.1,69.719,"1,1,1-trichloroethane",CC(Cl)(Cl)Cl
-6.62,5.92,228.359,"o,p'-DDT",Clc1ccc(C(c2ccccc2Cl)C(Cl)(Cl)Cl)cc1
-7.15,5.92,228.359,"p,p´-DDT",Clc1ccc(C(c2ccc(Cl)cc2)C(Cl)(Cl)Cl)cc1
-6.89,4.56,235.609,methoxychlor,COc1ccc(C(c2ccc(OC)cc2)C(Cl)(Cl)Cl)cc1
-2.6,3.2,96.051,pentachloroethane,ClC(Cl)C(Cl)(Cl)Cl
-4.19,4.61,242.387,triforine,O=CNC(N1CCN(C(NC=O)C(Cl)(Cl)Cl)CC1)C(Cl)(Cl)Cl
-4.19,3.81,241.075,triforine,O=CNC(N1C=CN(C(NC=O)C(Cl)(Cl)Cl)C=C1)C(Cl)(Cl)Cl
-0.22,0.48,126.479,trichlorfon,COP(=O)(OC)C(O)C(Cl)(Cl)Cl
-2.31,2.86,70.40100000000001,tetrachloromethane,ClC(Cl)(Cl)Cl
-2.17,2.54,70.331,trichloroacetonitrile,N#CC(Cl)(Cl)Cl
-5.67,5.74,232.666,dicofol,OC(c1ccc(Cl)cc1)(c1ccc(Cl)cc1)C(Cl)(Cl)Cl
-5.4,2.4,201.805,captafol,O=C1C2CC=CCC2C(=O)N1SC(Cl)(Cl)C(Cl)Cl
-2.39,2.49,97.057,alfa-chlorotoluene,ClCc1ccccc1
-4.37,3.87,170.11599999999999,barbane,O=C(Nc1cccc(Cl)c1)OCC#CCCl
-3.99,4.16,105.807,1-chloroheptane,CCCCCCCCl
-3.12,3.63,93.323,1-chlorohexane,CCCCCCCl
-2.73,3.09,80.839,1-chloropentane,CCCCCCl
-2.03,2.56,68.355,1-chlorobutane,CCCCCl
-1.62,2.0,69.03699999999999,"1,3-dichloropropane",ClCCCCl
-1.47,2.03,55.871,1-chloropropane,CCCCl
-1.06,1.41,56.553000000000004,"1,2-dichloroethane",ClCCCl
-0.29,0.18,56.483000000000004,3-chloropropionitrile,N#CCCCl
-1.12,1.19,85.82799999999999,bis-(2-chloroethyl) ether,ClCCOCCCl
-1.16,-0.0826,101.554,bis-(2-chloroethyl)-sulfoxide,O=S(CCCl)CCCl
-1.5,0.21,105.861,1-chloro-2-(2-chloroethylsulfonyl)ethane,O=S(=O)(CCCl)CCCl
-1.06,1.5,43.387,chloroethane,CCCl
-1.36,1.65,55.215,3-chloropropylene,C=CCCl
-2.0,2.38,68.355,1-chloro-2-methylpropane,CC(C)CCl
-0.11,0.66,73.344,"1,3-dichloro-2-propanol",OC(CCl)CCl
-6.34,4.7,256.475,dialifos,CCOP(=S)(OCC)SC(CCl)N1C(=O)c2ccccc2C1=O
-0.63,1.19,44.068999999999996,dichloromethane,ClCCl
-0.09,0.14,43.998999999999995,chloroacetonitrile,N#CCCl
-4.19,4.51,236.518,butachlor,CCCCOCN(C(=O)CCl)c1c(CC)cccc1CC
-3.26,2.92,199.06599999999997,alachlor,CCc1cccc(CC)c1N(COC)C(=O)CCl
-2.73,3.0,211.55,metolachlor,CCc1cccc(C)c1N(C(=O)CCl)C(C)COC
-2.48,2.28,157.30700000000002,propachlor,CC(C)N(C(=O)CCl)c1ccccc1
-0.02,-0.85,53.701,chloroacetamide,NC(=O)CCl
0.93,-0.0471,48.282,chloroacetic acid,O=C(O)CCl
-1.5,-0.11,93.37700000000001,bis-(2.chloroethyl)-sulfone,O=S(=O)(CCl)CCCl
-1.75,1.44,42.731,chloroethylene,C=CCl
-3.77,2.88,152.57,chlorfenprop-methyl,COC(=O)C(Cl)Cc1ccc(Cl)cc1
-2.63,2.91,80.839,2-chloropentane,CCCC(C)Cl
-2.63,2.91,80.839,3-chloropentane,CCC(Cl)CC
-1.96,2.38,68.355,2-chlorobutane,CCC(C)Cl
-1.92,1.96,82.20299999999999,"1,2,3-trichloropropane",ClCC(Cl)CCl
-1.6,1.76,69.03699999999999,"1,2-dichloropropane",CC(Cl)CCl
-1.41,1.85,55.871,2-chloropropane,CC(C)Cl
-2.7,2.11,81.521,"2,3-dichlorobutane",CC(Cl)C(C)Cl
-2.68,0.24,206.949,trichlormethiazide,NS(=O)(=O)c1cc2c(cc1Cl)NC(C(Cl)Cl)NS2(=O)=O
-2.4,2.6,81.521,"1,1-dichlorobutane",CCCC(Cl)Cl
-1.48,1.68,69.719,"1,1,2-trichloroethane",ClCC(Cl)Cl
-5.03,2.5,202.345,quinonamid,O=C(CC(Cl)Cl)NC1=C(Cl)C(=O)c2ccccc2C1=O
-1.29,1.53,56.553000000000004,"1,1-dichloroethane",CC(Cl)Cl
-6.51,5.39,215.19299999999998,"o,p'-DDD",Clc1ccc(C(c2ccccc2Cl)C(Cl)Cl)cc1
-7.2,5.39,215.19299999999998,"p,p´-DDD",Clc1ccc(C(c2ccc(Cl)cc2)C(Cl)Cl)cc1
-1.74,2.17,82.885,"1,1,2,2-tetrachloroethane",ClC(Cl)C(Cl)Cl
-1.17,1.76,57.235,chloroform,ClC(Cl)Cl
-1.62,1.98,140.459,"N,N-diallyldichloroacetamide",C=CCN(CC=C)C(=O)C(Cl)Cl
-5.03,2.45,189.861,quinonamid,O=C1C(Cl)=C(NC(=O)C(Cl)Cl)C(=O)c2ccccc21
-2.15,-0.27,215.91099999999997,thiamphenicol,CS(=O)(=O)c1ccc(C(O)C(CO)NC(=O)C(Cl)Cl)cc1
-1.3,1.74,55.897,"1,2-dichloroethylene",ClC=CCl
0.52,0.68,184.709,dimecron,CCN(CC)C(=O)C(Cl)=CCOP(=O)(OC)OC
-4.08,5.13,188.449,diallate,CC(C)N(C(=O)SCC(Cl)=CCl)C(C)C
-2.6,1.36,107.851,"1,3-dichloro-5,5-dimethylhydantoin",CC1(C)C(=O)N(Cl)C(=O)N1Cl
-7.28,5.49,211.257,teflubenzuron,O=C(NC(=O)c1c(F)cccc1F)Nc1cc(Cl)c(F)c(Cl)c1F
-6.02,3.68,197.207,difluron,O=C(NC(=O)c1c(F)cccc1F)Nc1ccc(Cl)cc1
-2.38,2.46,73.175,"1,2,4,5-tetrafluorobenzene",Fc1cc(F)c(F)cc1F
-2.31,2.43,73.175,"1,2,3,5-tetrafluorobenzene",Fc1cc(F)c(F)c(F)c1
-7.34,6.29,291.551,cyfluthrin,CC1(C)C(C=C(Cl)Cl)C1C(=O)OC(C#N)c1ccc(F)c(Oc2ccccc2)c1
-4.49,4.12,180.35,flurbiprofen,CC(C(=O)O)c1ccc(-c2ccccc2)c(F)c1
-1.8,0.5,193.90200000000002,fluconazole,OC(Cn1cncn1)(Cn1cncn1)c1ccc(F)cc1F
-3.37,2.31,207.646,flutriafol,OC(Cn1cncn1)(c1ccc(F)cc1)c1ccccc1F
-4.32,2.5,288.493,triamcinolone acetonide,CC1(C)OC2CC3C4CCC5=CC(=O)C=CC5(C)C4(F)C(O)CC3(C)C2(C(=O)CO)O1
-3.43,1.23,254.172,fludrocortisone,CC12CCC(=O)C=C1CCC1C3CCC(O)(C(=O)CO)C3(C)CC(O)C12F
-4.1,2.02,261.693,fluoromethasone,CC(=O)C1(O)CCC2C3CC(C)C4=CC(=O)C=CC4(C)C3(F)C(O)CC21C
-4.71,3.78,329.00800000000004,betamethasone-17-valerate,CCCCC(=O)OC1(C(=O)CO)C(C)CC2C3CCC4=CC(=O)C=CC4(C)C3(F)C(O)CC21C
-4.9,2.19,291.556,decadronal,CC(=O)OC1(C(=O)CO)C(C)CC2C3CCC4=CC(=O)C=CC4(C)C3(F)C(O)CC21C
-4.9,2.96,291.556,dexamethasone-17-acetate,CC(=O)OCC(=O)C1(O)C(C)CC2C3CCC4=CC(=O)C=CC4(C)C3(F)C(O)CC21C
-3.64,1.87,266.0,dexamethasone,CC1CC2C3CCC4=CC(=O)C=CC4(C)C3(F)C(O)CC2(C)C1(O)C(=O)CO
-5.61,1.61,266.442,flumethasone,CC1CC2C3CC(F)C4=CC(=O)C=CC4(C)C3(F)C(O)CC2(C)C1(O)C(=O)CO
-4.13,2.16,308.935,triamcinolone diacetate,CC(=O)OCC(=O)C1(O)C(OC(C)=O)CC2C3CCC4=CC(=O)C=CC4(C)C3(F)C(O)CC21C
-3.69,0.83,257.823,triamcinolone,CC12C=CC(=O)C=C1CCC1C3CC(O)C(O)(C(=O)CO)C3(C)CC(O)C12F
-2.0,2.36,72.291,m-difluorobenzene,Fc1cccc(F)c1
-2.54,2.54,97.499,p-fluorobenzyl chloride,Fc1ccc(CCl)cc1
-4.43,3.01,271.36400000000003,haloperidol,O=C(CCCN1CCC(O)(c2ccc(Cl)cc2)CC1)c1ccc(F)cc1
-1.97,2.39,72.291,p-difluorobenzene,Fc1ccc(F)cc1
-1.78,1.47,107.131,4-fluoroacetanilide,CC(=O)Nc1ccc(F)cc1
-1.8,2.27,71.84899999999999,fluorobenzene,Fc1ccccc1
-1.07,-0.78,68.821,5-fluorouracil,O=c1[nH]cc(F)c(=O)[nH]1
-0.97,-1.78,74.24,flucytosine,Nc1nc(=O)[nH]cc1F
-3.04,3.19,71.045,"1,1,2-trichlorotrifluoroethane",FC(F)(Cl)C(F)(Cl)Cl
-3.12,2.82,58.321000000000005,"1,2-dichlorotetrafluoroethane",FC(F)(Cl)C(F)(F)Cl
-4.21,3.77,202.923,RTI 13,CCN1c2ncccc2C(=O)Nc2c(C(F)(F)F)cc(C)nc21
-3.59,2.07,247.415,bendroflumethiazide,NS(=O)(=O)c1cc2c(cc1C(F)(F)F)NC(Cc1ccccc1)NS2(=O)=O
-1.6,2.87,102.596,Trifluoro-o-toluic acid,O=C(O)c1ccccc1C(F)(F)F
-4.15,4.06,306.014,fluphenazine,OCCN1CCN(CCCN2c3ccccc3Sc3ccc(C(F)(F)F)cc32)CC1
-4.52,4.33,289.223,trifluoperazine,CN1CCN(CCCN2c3ccccc3Sc3ccc(C(F)(F)F)cc32)CC1
-5.3,5.33,248.827,triflupromazine,CN(C)CCCN1c2ccccc2Sc2ccc(C(F)(F)F)cc21
-8.0,7.31,337.619,fluvalinate,CC(C)C(Nc1ccc(C(F)(F)F)cc1Cl)C(=O)OC(C#N)c1cccc(Oc2ccccc2)c1
-4.44,3.7,228.495,fluridone,Cn1cc(-c2ccccc2)c(=O)c(-c2cccc(C(F)(F)F)c2)c1
-8.4,5.68,269.935,fluotrimazole,FC(F)(F)c1cccc(C(c2ccccc2)(c2ccccc2)n2cncn2)c1
-4.05,3.04,177.50099999999998,flurochloridone,O=C1C(Cl)C(CCl)CN1c1cccc(C(F)(F)F)c1
-4.04,2.45,179.412,norflurazon,CNc1cnn(-c2cccc(C(F)(F)F)c2)c(=O)c1Cl
-1.47,2.39,94.943,3-trifluoromethylaniline,Nc1cccc(C(F)(F)F)c1
-4.36,5.62,178.476,flufenamic acid,O=C(O)c1ccccc1Nc1cccc(C(F)(F)F)c1
-4.17,4.94,172.655,niflumic acid,O=C(O)c1cccnc1Nc1cccc(C(F)(F)F)c1
-3.43,2.36,142.709,fluometuron,CN(C)C(=O)Nc1cccc(C(F)(F)F)c1
-2.51,2.79,85.21700000000001,benzyltrifluoride,FC(F)(F)c1ccccc1
0.3,0.66,48.338,"1,1,1-trifluoro-2-propanol",CC(O)C(F)(F)F
-7.32,5.78,222.44799999999998,tetrafluthrin,Cc1c(F)c(F)c(COC(=O)C2C(C=C(Cl)C(F)(F)F)C2(C)C)c(F)c1F
-8.18,6.2,291.753,cyhalothrin,CC1(C)C(C=C(Cl)C(F)(F)F)C1C(=O)OC(C#N)c1cccc(Oc2ccccc2)c1
-3.24,3.46,179.533,mefluidide,CC(=O)Nc1cc(NS(=O)(=O)C(F)(F)F)c(C)cc1C
-3.8,4.47,222.261,perfluidone,Cc1cc(S(=O)(=O)c2ccccc2)ccc1NS(=O)(=O)C(F)(F)F
-4.8,2.89,191.47099999999998,RTI 20,O=C1c2ccccc2Cc2ccccc2N1CCF
-6.88,6.17,318.592,flucythrinate,CC(C)C(C(=O)OC(C#N)c1cccc(Oc2ccccc2)c1)c1ccc(OC(F)F)cc1
-4.55,4.48,148.364,1-Iodonapthalene,Ic1cccc2ccccc12
-5.22,5.08,303.593,liothyronine,NC(Cc1cc(I)c(Oc2ccc(O)c(I)c2)c(I)c1)C(=O)O
-2.86,2.26,198.017,"3,5-diiodotyrosine",NC(Cc1cc(I)c(O)c(I)c1)C(=O)O
-3.61,3.6,159.04,ioxynil,N#Cc1cc(I)c(O)c(I)c1
-3.31,4.56,163.32299999999998,"3,5-diiodosalicylic acid",O=C(O)c1cc(I)cc(I)c1O
-6.62,5.51,207.673,iodofenphos,COP(=S)(OC)Oc1cc(Cl)c(I)cc1Cl
-3.54,4.1,119.68799999999999,o-chloroiodobenzene,Clc1ccccc1I
-4.21,3.23,195.47400000000002,benodanil,O=C(Nc1ccccc1)c1ccccc1I
-2.73,2.16,123.90100000000001,o-Iodobenzoic acid,O=C(O)c1ccccc1I
-3.55,3.39,119.68799999999999,m-chloroiodobenzene,Clc1cccc(I)c1
-3.27,3.11,123.90100000000001,m-Iodobenzoic acid,O=C(O)c1cccc(I)c1
-4.56,3.95,127.25399999999999,p-bromoiodobenzene,Brc1ccc(I)cc1
-4.03,3.77,119.68799999999999,p-chloroiodobenzene,Clc1ccc(I)cc1
-3.13,3.23,106.964,1-fluoro-4-iodobenzene,Fc1ccc(I)cc1
-3.25,2.71,141.804,4-iodoacetanilide,CC(=O)Nc1ccc(I)cc1
-2.78,3.25,106.522,iodobenzene,Ic1ccccc1
-3.46,3.85,197.28099999999998,"2,3,4,5-tetraiodo-1H-pyrrole",Ic1[nH]c(I)c(I)c1I
-4.81,4.68,127.756,1-iodoheptane,CCCCCCCI
-2.96,3.09,90.304,1-iodobutane,CCCCI
-2.29,2.56,77.82,1-iodopropane,CCCI
-0.43,1.04,82.715,beta-Iodopropionic acid,O=C(O)CCI
-1.6,2.03,65.336,iodoethane,CCI
-2.34,2.3,87.96700000000001,diiodomethane,ICI
-1.0,1.5,52.852,iodomethane,CI
-2.09,2.38,77.82,2-iodopropane,CC(C)I
-3.22,3.06,99.795,"1,2-diiodoethylene",IC=CI
-1.32,0.62,289.69,cephaloridine,O=C(Cc1cccs1)NC1C(=O)N2C(C(=O)O)=C(CN3C=C=CC=C3)CSC12
-1.99,-3.47,148.888,minoxidil,Nc1cc(N2CCCCC2)nc(N)[n+]1[O-]
-2.68,2.51,143.44899999999998,"1,7-phenantroline",c1cnc2c(c1)ccc1ncccc12
-3.97,2.7,168.417,"4,7-dimethyl-1,10-phenanthroline",Cc1ccnc2c1ccc1c(C)ccnc12
-2.78,3.31,149.27,phenanthridine,c1ccc2c(c1)cnc1ccccc12
-3.36,3.31,149.27,benzo(f)quinoline,c1ccc2c(c1)ccc1ncccc12
-5.54,3.64,261.339,cinmetacin,COc1ccc2c(c1)c(CC(=O)O)c(C)n2C(=O)C=Cc1ccccc1
-1.94,3.0,132.39600000000002,"2,4-dimethylquinoline",Cc1cc(C)c2ccccc2n1
-1.2,2.91,124.219,4-hydroxy-2-methylquinoline,Cc1cc(O)c2ccccc2n1
-2.54,1.45,111.735,5-hydroxyquinoline,Oc1cccc2ncccc12
-1.87,1.24,219.141,cepharamine,COc1ccc2c(c1O)C13CCN(C)C1(C=CC(=O)C3)CC2
-3.67,3.4,149.27,acridine,c1ccc2nc3ccccc3cc2c1
-3.04,0.18,186.757,RTI 3,Cc1ccc2c(c1)Oc1ncc(N)cc1C(=O)N2C
-2.16,1.8,111.735,6-hydroxyquinoline,Oc1ccc2ncccc2c1
-5.4,3.9,209.60299999999998,biquinoline,c1ccc2nc(-c3ccc4ccccc4n3)ccc2c1
-1.94,3.0,132.39600000000002,"2,7-dimethylquinoline",Cc1ccc2ccc(C)nc2c1
-3.93,0.74,192.578,RTI 11,Cc1ccc2c(c1)C(=O)N(C)c1cc(N)ccc1O2
-2.42,1.87,111.735,8-quinolinol,Oc1cccc2cccnc12
-1.3,2.08,107.428,quinoline,c1ccc2ncccc2c1
-4.19,4.8,237.61900000000003,imipramine,CN(C)CCCN1c2ccccc2CCc2ccccc21
-3.66,4.13,225.135,desipramine,CNCCCN1c2ccccc2CCc2ccccc21
-4.75,2.14,200.755,RTI 19,CCN1c2ccccc2C(=O)N(C)c2ccccc21
-3.68,2.66,182.852,RTI 9,CCN1C(=O)c2ccccc2Oc2ccccc21
-3.67,0.73,164.547,RTI 10,CN1C(=O)c2cccnc2Oc2ccccc21