,Expt,ClogP,Polarizability,Name,smiles
3195,-1.98,-1.22,143.416,None,N=C(N)NS(=O)(=O)c1ccc(N)cc1
3196,-1.383,0.0339,175.532,None,Nc1ccc(S(=O)(=O)Nc2ccccn2)cc1
3201,-1.479,2.54,167.09,None,CCc1c(C)c(CN)nc2ccccc12
3202,0.159,3.45,155.708,None,CCCCCCCCSC(=N)N
3205,-0.435,-0.8,135.35299999999998,None,O=S(=O)(N1CCCC1)N1CCCC1
3206,-0.403,-1.0,132.445,None,O=C(O)CC(O)CCC1=CCCC1=O
3207,-4.332,4.16,145.161,None,CCCCCCC(CO[N+](=O)[O-])O[N+](=O)[O-]
3215,-1.229,0.15,138.571,None,OCCOc1ccc(OCCO)cc1
3216,-0.585,-0.096,112.336,None,O=C(O)CN1CCCCS1(=O)=O
3217,-1.196,2.35,187.481,None,Cc1ccc2c3c1CCCC3CN(C(N)=NO)C2
3218,-1.221,1.11,187.481,None,COc1ccc2c3c1CCCC3CN(C(=N)N)C2
3219,-1.35,1.89,174.997,None,NC(=NO)N1Cc2cccc3c2C(CCC3)C1
3229,-2.161,0.35,119.642,None,NNC(=O)c1ccc([N+](=O)[O-])cc1
3231,-1.152,2.06,194.346,None,CN=C(NC)N1Cc2cccc3cccc(c23)C1
3232,-1.011,-0.77,116.282,None,O=c1[nH]c(=O)n(C2CCCO2)cc1F
3235,-3.193,2.53,127.414,None,O=C(O)C=Cc1ccc2c(c1)OCO2
3237,-3.886,2.07,154.702,None,O=[N+]([O-])c1ccc(-c2nc3ccccc3[nH]2)o1
3243,-4.118,1.34,161.387,None,O=c1[nH]c(Nc2ccccc2)nc2[nH]cnc12
3246,-1.789,4.42,186.086,None,CCC(C)CN(C)N=Nc1ccc(C(=O)O)cc1
3247,-2.503,1.13,143.855,None,NS(=O)(=O)c1nc2ccc(O)cc2s1
3248,-2.604,2.86,165.108,None,O=C(c1cccc(F)c1)N(O)c1ccccc1
3249,-3.2060000000000004,0.66,177.33599999999996,None,O=C(NO)c1ccccc1N=Cc1ccccn1
3250,-2.532,3.32,177.592,None,Cc1ccccc1N(O)C(=O)c1cccc(F)c1
3262,-2.456,2.38,173.99,None,N=C(N)NN=Cc1c(O)ccc2ccccc12
3265,0.132,-0.92,135.09,None,CC(=O)Nc1ccc(OP(=O)([O-])O)cc1
3266,-1.452,1.73,125.448,None,CN(O)C(=O)C1CCCCCC1
3267,-2.035,1.53,131.15,None,O=C(C1CC1)N(O)C1CCCCC1
3268,-2.699,2.09,143.634,None,O=C(C1CCC1)N(O)C1CCCCC1
3269,-3.155,2.66,156.118,None,O=C(C1CCCC1)N(O)C1CCCCC1
3270,-0.424,3.01,148.634,None,CCN(C)N=Nc1ccc(C(=O)O)cc1
3271,-1.432,3.54,161.118,None,CCCN(C)N=Nc1ccc(C(=O)O)cc1
3272,-1.808,4.07,173.602,None,CCCCN(C)N=Nc1ccc(C(=O)O)cc1
3273,-2.367,4.6,186.086,None,CCCCCN(C)N=Nc1ccc(C(=O)O)cc1
3277,-2.31,1.78,143.44899999999996,None,c1cnc2c(c1)ccc1cccnc12
3295,-1.7180000000000002,0.87,136.55200000000002,None,CNC(=O)COC(=O)c1ccccc1
3296,-1.372,0.67,149.036,None,CN(C)C(=O)COC(=O)c1ccccc1
3297,-2.539,1.93,161.52,None,CCCNC(=O)COC(=O)c1ccccc1
3298,-2.866,2.1,174.00400000000005,None,CC(C)(C)NC(=O)COC(=O)c1ccccc1
3302,-3.494,0.36,157.151,None,NS(=O)(=O)c1cc2c(s1)C(=O)CCS2
3303,-1.09,0.36,165.827,None,CN(CCO)C(=O)COC(=O)c1ccccc1
3306,-2.501,2.15,179.706,None,O=C(OCC(=O)N1CCCCC1)c1ccccc1
3308,-3.552,0.55,157.151,None,NS(=O)(=O)c1cc2c(s1)SCCC2=O
3310,-2.919,1.08,159.94299999999996,None,Cc1ccc(Cn2cc(F)c(=O)[nH]c2=O)cc1
3311,-1.773,1.1,171.52900000000002,None,O=C(OCC(=O)N1CCOCC1)c1ccccc1
3312,-1.4980000000000002,0.17,159.35,None,NC(=O)CNC(=O)COC(=O)c1ccccc1
3328,-0.5329999999999999,0.21,115.303,None,NC(C(=O)O)c1ccc(O)cc1
3331,-1.087,2.2,136.917,None,CCCCOP(=O)(O)OCCCC
3332,-2.804,3.38,163.705,None,O=C(C(=O)c1ccccc1)c1ccccc1
3333,-1.126,0.35,120.334,None,CC(=O)NC(CC(C)C)C(=O)O
3334,-3.305,1.23,154.131,None,NC(CSSCC(N)C(=O)O)C(=O)O
3337,-1.768,1.5,124.014,None,CC(C)Nc1nc(N)nc(Cl)n1
3340,-0.353,1.05,135.376,None,CNC(C)C(O)c1ccccc1
3346,-0.3,-0.58,145.764,None,CC1(C)C2CCC1(CS(=O)(=O)O)C(=O)C2
3350,-2.83,1.84,122.847,None,O=[N+]([O-])c1cc([N+](=O)[O-])c(O)c([N+](=O)[O-])c1
3351,-1.383,1.57,153.17,None,CCSC(=S)NC(CC(=O)O)C(=O)O
3352,-1.69,0.48,148.497,None,CC(C)C(O)(CCC(C)(O)C(=O)O)C(=O)O
3354,-1.242,2.05,165.983,None,O=C(O)CC(CSC(=O)O)c1ccccc1
3355,-1.212,-0.0133,108.47,None,Cc1ncc([N+](=O)[O-])n1CCO
3356,-3.756,2.63,148.982,None,CCNc1nc(Cl)nc(NC(C)C)n1
3357,-5.899,3.49,179.766,None,[O-]N=C(C(=NO)c1ccccc1)c1ccccc1
3358,-0.737,0.33,120.954,None,Cc1ncc([N+](=O)[O-])n1CC(C)O
3359,-2.046,0.83,146.615,None,Cc1nnc(-c2ccccc2)c(=O)n1N
3365,-3.596,2.04,169.56400000000005,None,c1ccc(CNc2ncnc3[nH]cnc23)cc1
3367,-3.946,1.2,149.559,None,c1coc(CNc2ncnc3[nH]cnc23)c1
3382,-0.45,0.0146,181.442,None,CC(C)(C)NCC(O)c1ccc(O)c(CO)c1
3383,0.504,-1.4,125.753,None,CN(C)C(=O)CCC(=O)N(C)C
3384,-2.201,1.95,123.48,None,CCOC(=O)c1ccc(N)cc1
3385,-3.957,1.65,138.52,None,CCC1(CC)CCC(=O)N(CO)C1=O
3386,-3.933,0.56,136.35,None,CCC1(CC)C(=O)NC(=O)N(CO)C1=O
3387,-0.29600000000000004,-2.15,161.96,None,Nc1ncc2ncn(CCC(CO)CO)c2n1
3390,-3.337,2.79,170.89700000000005,None,O=C(CS)Nc1ccc2ccccc2c1
3392,-2.063,-0.3,118.247,None,C=CC1(C=C)C(=O)NC(=O)NC1=O
3393,-3.292,2.85,161.52,None,CCCOC(=O)c1ccc(NC(C)=O)cc1
3394,-1.712,0.5,131.387,None,C=CC1(C(C)C)C(=O)NC(=O)NC1=O
3395,-2.12,1.03,143.871,None,C=CC1(CC(C)C)C(=O)NC(=O)NC1=O
3401,-0.433,-1.3,138.05,None,Nc1ccn(C2CCC(CO)O2)c(=O)n1
3403,-0.617,-0.26,138.489,None,COC(=O)C(NC(=O)C(Cl)Cl)C(C)O
3404,-0.028,-0.8,113.521,None,O=C(NC(CO)C(=O)O)C(Cl)Cl
3405,-1.609,1.02,154.738,None,O=C(OCC(=O)N1CCC1)c1ccccc1
3406,-2.732,1.75,161.52,None,CC(C)NC(=O)COC(=O)c1ccccc1
3407,-2.759,2.46,174.00400000000005,None,CCCCNC(=O)COC(=O)c1ccccc1
3408,-1.568,1.59,167.222,None,O=C(OCC(=O)N1CCCC1)c1ccccc1
3409,-1.229,1.63,174.00400000000005,None,CN(C)C(=O)CCCOC(=O)c1ccccc1
3410,-0.495,1.27,162.108,None,CC(=O)N(C)C(=O)COC(=O)c1ccccc1
3418,-2.395,1.17,158.39700000000005,None,CCC(=O)OCSc1ncnc2[nH]cnc12
3448,-5.078,2.08,150.363,None,Cc1coc2cc3oc(=O)c(N)cc3cc12
3449,-5.0,2.76,157.428,None,COc1cc2cc3c(C)coc3cc2oc1=O
3470,-4.052,4.33,184.925,None,Cc1cc(N=Nc2ccccc2C)ccc1N
3471,-5.252000000000002,4.43,184.925,None,CN(C)c1ccc(N=Nc2ccccc2)cc1
3472,-2.377,0.77,135.189,None,CC1NC(=O)c2ccccc2NC1=O
3473,-3.903,3.38,184.925,None,Cc1ccc(N=Nc2cc(C)ccc2N)cc1
3474,-3.0460000000000003,1.49,135.871,None,O=C1CNC(=O)c2cc(Cl)ccc2N1
3476,-3.867,1.0,160.745,None,CCn1cc(C(=O)O)c(=O)c2ccc(C)nc21
3477,-2.356,1.56,156.355,None,C=CC1(C(C)CCC)C(=O)NC(=O)NC1=O
3479,-3.104,3.1,120.193,None,CCCCC(CO[N+](=O)[O-])O[N+](=O)[O-]
3485,-1.495,1.56,170.27,None,CCCC(CCC)C(=O)NCCCC(=O)O
3490,-1.268,0.0437,145.69,None,CCN(C(N)=O)c1ccc(OC)cc1
3492,-2.5860000000000003,2.37,117.663,None,O=C(O)c1ccc(Cl)c([N+](=O)[O-])c1
3493,-2.649,0.62,147.459,None,O=c1[nH]c(=O)n(Cc2ccccc2)cc1F
3495,-0.623,0.0431,100.612,None,OCC1OCOC2COCOC12
3496,-2.503,2.57,107.709,None,CCCC(CO[N+](=O)[O-])O[N+](=O)[O-]
3497,-2.437,2.71,107.709,None,CC(CCCO[N+](=O)[O-])O[N+](=O)[O-]
3498,-2.841,2.3,120.193,None,CC(CCCCO[N+](=O)[O-])O[N+](=O)[O-]
3499,-2.33,2.78,113.411,None,O=[N+]([O-])OC1CCCC(O[N+](=O)[O-])C1
3500,-2.133,-0.37,172.945,None,CN1CCN(Cc2ccc(Cl)nc2)C1=NC#N
3501,-2.347,2.82,113.411,None,O=[N+]([O-])OC1CCCCC1O[N+](=O)[O-]
3502,-2.632,0.52,160.461,None,N#CN=C1NCCN1Cc1ccc(Cl)nc1
3503,-3.0210000000000004,3.38,125.895,None,O=[N+]([O-])OC1CCCCCC1O[N+](=O)[O-]
3508,0.075,-1.31,115.557,None,Cn1cncc1CC(N)C(=O)O
3510,-1.934,1.02,127.897,None,O=C(O)C1CCC(C(=O)O)SS1
3511,-2.138,1.32,135.845,None,COc1ccc(NC(=O)C2CC2)cn1
3515,0.393,-3.62,112.289,None,O=C1OC(C(O)C(O)CO)C(O)C1O
3517,-2.641,1.53,147.673,None,CCC1(c2ccccc2)NC(=O)NC1=O
3518,-1.656,0.78,148.58,None,OC1COC(Oc2ccccc2)C(O)C1O
3520,-0.955,0.3,153.94799999999995,None,O=C(O)CCCC1CCCC2NC(=O)NC12
3521,-1.77,1.04,150.736,None,NC(Cc1c[nH]c2ccccc12)C(=O)O
3522,-2.92,-0.36,118.128,None,NC(=O)NN=Cc1ccc([N+](=O)[O-])o1
3523,-2.39,2.05,157.011,None,CCCC(C)C1(CC)C(=O)NC(=O)NC1=O
3526,-1.276,-1.72,148.429,None,Cc1oc(C(O)C(O)C(O)CO)cc1C(=O)O
3528,-3.096,-3.32,150.064,None,CC(O)C(O)c1cnc2nc(N)[nH]c(=O)c2n1
3532,-3.165,1.69,113.635,None,COc1ccc([N+](=O)[O-])cc1N
3534,-3.745,0.6,153.375,None,O=C1Nc2ccccc2C(=O)N2CCCC12
3537,-2.367,-0.67,157.68200000000004,None,O=C1Nc2ccccc2C(=O)N2CC(O)CC12
3539,-2.31,0.7,176.292,None,CC(=O)NC(Cc1c[nH]c2ccccc12)C(=O)O
3543,-0.958,1.26,114.915,None,CCOC(=O)CCC(=O)OCC
3544,-2.7230000000000003,-1.53,155.885,None,CN1CC(O)C2=CC(=NNC(N)=O)C(=O)C=C21
3545,-1.813,1.82,104.497,None,O=C(O)c1cccc([N+](=O)[O-])c1
3546,-0.7959999999999999,2.47,136.15,None,CN(C)N=Nc1ccc(C(=O)O)cc1
3548,-1.1840000000000002,-1.07,138.49200000000002,None,Nc1ccn(C2CC(F)C(CO)O2)c(=O)n1
3567,-3.944,3.82,150.231,None,c1ccc(N=Nc2ccccc2)cc1
3568,-3.945,3.24,154.53799999999995,None,Oc1ccc(N=Nc2ccccc2)cc1
3569,-3.076,2.44,158.845,None,Oc1ccc(N=Nc2ccccc2)c(O)c1
3571,-4.378,3.29,171.917,None,O=C(O)c1ccc(N=Nc2ccc(O)cc2)cc1
3572,-3.054,3.88,171.917,None,O=C(O)c1cc(N=Nc2ccccc2)ccc1O
3575,-2.595,1.89,104.497,None,O=C(O)c1ccc([N+](=O)[O-])cc1
3576,-2.283,0.88,183.425,None,CC(C)C1OC(O)C(Cc2ccccc2)NC1=O
3578,-1.231,-0.96,140.755,None,CC(=O)NS(=O)(=O)c1ccc(N)cc1
3579,-2.2880000000000003,-1.3,136.455,None,NNC(=O)c1ccc(C(=O)NN)cc1
3581,-1.535,0.89,146.909,None,O=c1[nH]c(CN2CCCC2)c(Cl)c(=O)[nH]1
3585,0.608,-2.65,102.28,None,O=C(O)C(O)(CO)CC(O)CO
3594,-1.6405,0.69,124.068,Skeleton = 2,NC(=O)COC(=O)c1ccccc1
3596,-1.372,0.67,149.036,"Skeleton = 2, R1 = CH3, R2 = CH3",CN(C)C(=O)COC(=O)c1ccccc1
3598,-1.7178,0.87,136.55200000000002,"Skeleton = 2, R1 = CH3",CNC(=O)COC(=O)c1ccccc1
3600,-1.0897,0.36,165.827,"Skeleton = 2, R1 = CH3, R2 = CH2CH2OH",CN(CCO)C(=O)COC(=O)c1ccccc1
3604,-2.2373,1.4,149.036,"Skeleton = 2, R1 = C2H5",CCNC(=O)COC(=O)c1ccccc1
3605,-1.6085,1.02,154.738,"Skeleton = 2, NR1R2 = azetidine",O=C(OCC(=O)N1CCC1)c1ccccc1
3606,-1.5685,1.59,167.222,"Skeleton = 2, NR1R2 = pyrrolidine",O=C(OCC(=O)N1CCCC1)c1ccccc1
3607,-2.5011,2.15,179.706,"Skeleton = 2, NR1R2 = piperidine",O=C(OCC(=O)N1CCCCC1)c1ccccc1
3608,-1.7734,1.1,171.52900000000002,"Skeleton = 2, NR1R2 = morpholine",O=C(OCC(=O)N1CCOCC1)c1ccccc1
3612,-2.5387,1.93,161.52,"Skeleton = 2, R1 = n-C3H7",CCCNC(=O)COC(=O)c1ccccc1
3616,-2.7321,1.75,161.52,"Skeleton = 2, R1 = i-C3H7",CC(C)NC(=O)COC(=O)c1ccccc1
3617,-2.2828,2.08,186.488,"Skeleton = 3, R = CH(CH3)CON(C2H5)2",CCN(CC)C(=O)C(C)OC(=O)c1ccccc1
3618,-2.4003,0.51,149.624,"Skeleton = 3, R = CH2CONHCOCH3",CC(=O)NC(=O)COC(=O)c1ccccc1
3619,-2.8664,1.27,162.108,"Skeleton = 3, R = CH2CON(CH3)COCH3",CC(=O)N(C)C(=O)COC(=O)c1ccccc1
3620,-2.7588,2.46,174.00400000000005,"Skeleton = 2, R1 = C4H9",CCCCNC(=O)COC(=O)c1ccccc1
3621,-2.8664,2.1,174.00400000000005,"Skeleton = 2, R1 = t-C4H9",CC(C)(C)NC(=O)COC(=O)c1ccccc1
3622,-1.4983,0.17,159.35,"Skeleton = 2, R1 = CH2CONH2",NC(=O)CNC(=O)COC(=O)c1ccccc1
3628,-0.3098,0.2,82.294,L-valine,CC(C)C(N)C(=O)O
3630,-0.7326,-0.4,163.069,glycyl-L-tyrosine,NCC(=O)NC(Cc1ccc(O)cc1)C(=O)O
3631,-1.0983,-0.45,163.069,L-tyrosylglycine,NC(Cc1ccc(O)cc1)C(=O)NCC(=O)O
3635,-0.4056,0.6,155.028,L-valyl-L-valine,CC(C)C(N)C(=O)NC(C(=O)O)C(C)C
3636,-0.1748,1.13,167.512,L-leucyl-L-valine,CC(C)CC(N)C(=O)NC(C(=O)O)C(C)C
3637,-0.4333,-0.0934,130.06,glycyl-L-leucine,CC(C)CC(NC(=O)CN)C(=O)O
3638,-0.1132,-0.28,165.342,glycylglycyl-L-leucine,CC(C)CC(NC(=O)CNC(=O)CN)C(=O)O
3639,0.3076,-0.28,165.342,L-leucylglycyl-glycine,CC(C)CC(N)C(=O)NCC(=O)NCC(=O)O
3644,-1.2219,-0.67,74.705,ASP,NC(CC(=O)O)C(=O)O
3645,-1.2924,-1.51,80.124,ASN,NC(=O)CC(N)C(=O)O
3646,-2.4949,-0.26,127.167,acetazolamide,CC(=O)Nc1nnc(S(N)(=O)=O)s1
3647,-1.9208,0.13,139.651,methazolamide,CC(=O)N=c1sc(S(N)(=O)=O)nn1C
3650,-1.2676,0.94,110.996,alpha-benzenyl-glycine,NC(C(=O)O)c1ccccc1
3651,-1.1367,-1.58,61.633,serine,NC(CO)C(=O)O
3652,-1.3188,0.39,127.787,beta-benzenyl-serine,NC(C(=O)O)C(O)c1ccccc1
3653,-1.1871,0.24,79.692,cys,NC(CS)C(=O)O
3654,-1.4949,1.88,105.577,methylparaben,Cc1cc(O)ccc1C(=O)O
3655,-1.9586,2.41,118.061,ethylparaben,CCc1cc(O)ccc1C(=O)O
3656,-2.3979,2.94,130.545,propylparaben,CCCc1cc(O)ccc1C(=O)O
3657,-2.8239,3.47,143.029,butylparaben,CCCCc1cc(O)ccc1C(=O)O
3663,0.58,-0.0299,127.199,phenylephrine,CNCC(O)c1cccc(O)c1
3665,0.14,0.25,156.474,isoproterenol,CC(C)NCC(O)c1ccc(O)c(O)c1