,Expt,ClogP,Polarizability,Name,smiles
2698,-1.383,1.57,153.17,None,CCSC(=S)NC(CC(=O)O)C(=O)O
2699,-1.69,0.48,148.497,None,CC(C)C(O)(CCC(C)(O)C(=O)O)C(=O)O
2701,-1.242,2.05,165.983,None,O=C(O)CC(CSC(=O)O)c1ccccc1
2702,-5.899,3.49,179.766,None,[O-]N=C(C(=NO)c1ccccc1)c1ccccc1
2703,-0.737,0.33,120.954,None,Cc1ncc([N+](=O)[O-])n1CC(C)O
2704,-2.046,0.83,146.615,None,Cc1nnc(-c2ccccc2)c(=O)n1N
2710,-3.596,2.04,169.56400000000005,None,c1ccc(CNc2ncnc3[nH]cnc23)cc1
2712,-3.946,1.2,149.559,None,c1coc(CNc2ncnc3[nH]cnc23)c1
2726,0.504,-1.4,125.753,None,CN(C)C(=O)CCC(=O)N(C)C
2727,-3.957,1.65,138.52,None,CCC1(CC)CCC(=O)N(CO)C1=O
2728,-3.933,0.56,136.35,None,CCC1(CC)C(=O)NC(=O)N(CO)C1=O
2729,-0.29600000000000004,-2.15,161.96,None,Nc1ncc2ncn(CCC(CO)CO)c2n1
2731,-3.337,2.79,170.89700000000005,None,O=C(CS)Nc1ccc2ccccc2c1
2733,-2.063,-0.3,118.247,None,C=CC1(C=C)C(=O)NC(=O)NC1=O
2734,-3.292,2.85,161.52,None,CCCOC(=O)c1ccc(NC(C)=O)cc1
2735,-1.712,0.5,131.387,None,C=CC1(C(C)C)C(=O)NC(=O)NC1=O
2736,-2.12,1.03,143.871,None,C=CC1(CC(C)C)C(=O)NC(=O)NC1=O
2738,-0.433,-1.3,138.05,None,Nc1ccn(C2CCC(CO)O2)c(=O)n1
2740,-0.617,-0.26,138.489,None,COC(=O)C(NC(=O)C(Cl)Cl)C(C)O
2741,-0.028,-0.8,113.521,None,O=C(NC(CO)C(=O)O)C(Cl)Cl
2742,-1.609,1.02,154.738,None,O=C(OCC(=O)N1CCC1)c1ccccc1
2743,-2.732,1.75,161.52,None,CC(C)NC(=O)COC(=O)c1ccccc1
2744,-2.759,2.46,174.00400000000005,None,CCCCNC(=O)COC(=O)c1ccccc1
2745,-1.568,1.59,167.222,None,O=C(OCC(=O)N1CCCC1)c1ccccc1
2746,-1.229,1.63,174.00400000000005,None,CN(C)C(=O)CCCOC(=O)c1ccccc1
2747,-0.495,1.27,162.108,None,CC(=O)N(C)C(=O)COC(=O)c1ccccc1
2755,-2.395,1.17,158.39700000000005,None,CCC(=O)OCSc1ncnc2[nH]cnc12
2785,-5.078,2.08,150.363,None,Cc1coc2cc3oc(=O)c(N)cc3cc12
2786,-5.0,2.76,157.428,None,COc1cc2cc3c(C)coc3cc2oc1=O
2806,-4.052,4.33,184.925,None,Cc1cc(N=Nc2ccccc2C)ccc1N
2807,-5.252000000000002,4.43,184.925,None,CN(C)c1ccc(N=Nc2ccccc2)cc1
2808,-2.377,0.77,135.189,None,CC1NC(=O)c2ccccc2NC1=O
2809,-3.903,3.38,184.925,None,Cc1ccc(N=Nc2cc(C)ccc2N)cc1
2810,-3.0460000000000003,1.49,135.871,None,O=C1CNC(=O)c2cc(Cl)ccc2N1
2812,-2.356,1.56,156.355,None,C=CC1(C(C)CCC)C(=O)NC(=O)NC1=O
2814,-3.104,3.1,120.193,None,CCCCC(CO[N+](=O)[O-])O[N+](=O)[O-]
2817,-1.495,1.56,170.27,None,CCCC(CCC)C(=O)NCCCC(=O)O
2821,-1.268,0.0437,145.69,None,CCN(C(N)=O)c1ccc(OC)cc1
2823,-2.5860000000000003,2.37,117.663,None,O=C(O)c1ccc(Cl)c([N+](=O)[O-])c1
2824,-2.649,0.62,147.459,None,O=c1[nH]c(=O)n(Cc2ccccc2)cc1F
2826,-0.623,0.0431,100.612,None,OCC1OCOC2COCOC12
2827,-2.503,2.57,107.709,None,CCCC(CO[N+](=O)[O-])O[N+](=O)[O-]
2828,-2.437,2.71,107.709,None,CC(CCCO[N+](=O)[O-])O[N+](=O)[O-]
2829,-2.841,2.3,120.193,None,CC(CCCCO[N+](=O)[O-])O[N+](=O)[O-]
2830,-2.33,2.78,113.411,None,O=[N+]([O-])OC1CCCC(O[N+](=O)[O-])C1
2831,-2.133,-0.37,172.945,None,CN1CCN(Cc2ccc(Cl)nc2)C1=NC#N
2832,-2.347,2.82,113.411,None,O=[N+]([O-])OC1CCCCC1O[N+](=O)[O-]
2833,-2.632,0.52,160.461,None,N#CN=C1NCCN1Cc1ccc(Cl)nc1
2834,-3.0210000000000004,3.38,125.895,None,O=[N+]([O-])OC1CCCCCC1O[N+](=O)[O-]
2838,0.075,-1.31,115.557,None,Cn1cncc1CC(N)C(=O)O
2840,-1.934,1.02,127.897,None,O=C(O)C1CCC(C(=O)O)SS1
2841,-2.138,1.32,135.845,None,COc1ccc(NC(=O)C2CC2)cn1
2844,0.393,-3.62,112.289,None,O=C1OC(C(O)C(O)CO)C(O)C1O
2846,-2.641,1.53,147.673,None,CCC1(c2ccccc2)NC(=O)NC1=O
2847,-1.656,0.78,148.58,None,OC1COC(Oc2ccccc2)C(O)C1O
2849,-0.955,0.3,153.94799999999995,None,O=C(O)CCCC1CCCC2NC(=O)NC12
2850,-2.92,-0.36,118.128,None,NC(=O)NN=Cc1ccc([N+](=O)[O-])o1
2853,-1.276,-1.72,148.429,None,Cc1oc(C(O)C(O)C(O)CO)cc1C(=O)O
2855,-3.096,-3.32,150.064,None,CC(O)C(O)c1cnc2nc(N)[nH]c(=O)c2n1
2859,-3.165,1.69,113.635,None,COc1ccc([N+](=O)[O-])cc1N
2861,-3.745,0.6,153.375,None,O=C1Nc2ccccc2C(=O)N2CCCC12
2863,-2.367,-0.67,157.68200000000004,None,O=C1Nc2ccccc2C(=O)N2CC(O)CC12
2865,-2.31,0.7,176.292,None,CC(=O)NC(Cc1c[nH]c2ccccc12)C(=O)O
2868,-2.7230000000000003,-1.53,155.885,None,CN1CC(O)C2=CC(=NNC(N)=O)C(=O)C=C21
2869,-0.7959999999999999,2.47,136.15,None,CN(C)N=Nc1ccc(C(=O)O)cc1
2871,-1.1840000000000002,-1.07,138.49200000000002,None,Nc1ccn(C2CC(F)C(CO)O2)c(=O)n1
2889,-3.945,3.24,154.53799999999995,None,Oc1ccc(N=Nc2ccccc2)cc1
2890,-3.076,2.44,158.845,None,Oc1ccc(N=Nc2ccccc2)c(O)c1
2892,-4.378,3.29,171.917,None,O=C(O)c1ccc(N=Nc2ccc(O)cc2)cc1
2893,-3.054,3.88,171.917,None,O=C(O)c1cc(N=Nc2ccccc2)ccc1O
2896,-2.283,0.88,183.425,None,CC(C)C1OC(O)C(Cc2ccccc2)NC1=O
2898,-2.2880000000000003,-1.3,136.455,None,NNC(=O)c1ccc(C(=O)NN)cc1
2900,-1.535,0.89,146.909,None,O=c1[nH]c(CN2CCCC2)c(Cl)c(=O)[nH]1
2904,0.608,-2.65,102.28,None,O=C(O)C(O)(CO)CC(O)CO
2908,-0.3098,0.2,82.294,L-valine,CC(C)C(N)C(=O)O
2911,-1.2219,-0.67,74.705,ASP,NC(CC(=O)O)C(=O)O
2913,-1.2676,0.94,110.996,alpha-benzenyl-glycine,NC(C(=O)O)c1ccccc1
2914,-1.1367,-1.58,61.633,serine,NC(CO)C(=O)O
2915,-1.3188,0.39,127.787,beta-benzenyl-serine,NC(C(=O)O)C(O)c1ccccc1
2916,-1.1871,0.24,79.692,cys,NC(CS)C(=O)O
2917,-1.4949,1.88,105.577,methylparaben,Cc1cc(O)ccc1C(=O)O
2918,-1.9586,2.41,118.061,ethylparaben,CCc1cc(O)ccc1C(=O)O
2919,-2.3979,2.94,130.545,propylparaben,CCCc1cc(O)ccc1C(=O)O
2920,-2.8239,3.47,143.029,butylparaben,CCCCc1cc(O)ccc1C(=O)O
2921,0.58,-0.0299,127.199,phenylephrine,CNCC(O)c1cccc(O)c1
2923,0.14,0.25,156.474,isoproterenol,CC(C)NCC(O)c1ccc(O)c(O)c1